TITLE = "Wave Graphs for Caspian Sea"
VARIABLES = "X" , "Y" , "Hs" , "Mask" , "u" , "v"
TEXT
CS=FRAME
X=27.5	Y=92.5
ZN=1
C=BLACK
HU=POINT
LS=1	AN=LEFT
F=TIMES-BOLD
H=16	A=0
T="Forecast for 00 UTC Mon. 07 Jul 2014"
ZONE
T="1" , I=165 , J=221 , K=1 , F=POINT
46.8000	36.2500	0.0000	0.0000	0.0000	0.0000
46.8500	36.2500	0.0000	0.0000	0.0000	0.0000
46.9000	36.2500	0.0000	0.0000	0.0000	0.0000
46.9500	36.2500	0.0000	0.0000	0.0000	0.0000
47.0000	36.2500	0.0000	0.0000	0.0000	0.0000
47.0500	36.2500	0.0000	0.0000	0.0000	0.0000
47.1000	36.2500	0.0000	0.0000	0.0000	0.0000
47.1500	36.2500	0.0000	0.0000	0.0000	0.0000
47.2000	36.2500	0.0000	0.0000	0.0000	0.0000
47.2500	36.2500	0.0000	0.0000	0.0000	0.0000
47.3000	36.2500	0.0000	0.0000	0.0000	0.0000
47.3500	36.2500	0.0000	0.0000	0.0000	0.0000
47.4000	36.2500	0.0000	0.0000	0.0000	0.0000
47.4500	36.2500	0.0000	0.0000	0.0000	0.0000
47.5000	36.2500	0.0000	0.0000	0.0000	0.0000
47.5500	36.2500	0.0000	0.0000	0.0000	0.0000
47.6000	36.2500	0.0000	0.0000	0.0000	0.0000
47.6500	36.2500	0.0000	0.0000	0.0000	0.0000
47.7000	36.2500	0.0000	0.0000	0.0000	0.0000
47.7500	36.2500	0.0000	0.0000	0.0000	0.0000
47.8000	36.2500	0.0000	0.0000	0.0000	0.0000
47.8500	36.2500	0.0000	0.0000	0.0000	0.0000
47.9000	36.2500	0.0000	0.0000	0.0000	0.0000
47.9500	36.2500	0.0000	0.0000	0.0000	0.0000
48.0000	36.2500	0.0000	0.0000	0.0000	0.0000
48.0500	36.2500	0.0000	0.0000	0.0000	0.0000
48.1000	36.2500	0.0000	0.0000	0.0000	0.0000
48.1500	36.2500	0.0000	0.0000	0.0000	0.0000
48.2000	36.2500	0.0000	0.0000	0.0000	0.0000
48.2500	36.2500	0.0000	0.0000	0.0000	0.0000
48.3000	36.2500	0.0000	0.0000	0.0000	0.0000
48.3500	36.2500	0.0000	0.0000	0.0000	0.0000
48.4000	36.2500	0.0000	0.0000	0.0000	0.0000
48.4500	36.2500	0.0000	0.0000	0.0000	0.0000
48.5000	36.2500	0.0000	0.0000	0.0000	0.0000
48.5500	36.2500	0.0000	0.0000	0.0000	0.0000
48.6000	36.2500	0.0000	0.0000	0.0000	0.0000
48.6500	36.2500	0.0000	0.0000	0.0000	0.0000
48.7000	36.2500	0.0000	0.0000	0.0000	0.0000
48.7500	36.2500	0.0000	0.0000	0.0000	0.0000
48.8000	36.2500	0.0000	0.0000	0.0000	0.0000
48.8500	36.2500	0.0000	0.0000	0.0000	0.0000
48.9000	36.2500	0.0000	0.0000	0.0000	0.0000
48.9500	36.2500	0.0000	0.0000	0.0000	0.0000
49.0000	36.2500	0.0000	0.0000	0.0000	0.0000
49.0500	36.2500	0.0000	0.0000	0.0000	0.0000
49.1000	36.2500	0.0000	0.0000	0.0000	0.0000
49.1500	36.2500	0.0000	0.0000	0.0000	0.0000
49.2000	36.2500	0.0000	0.0000	0.0000	0.0000
49.2500	36.2500	0.0000	0.0000	0.0000	0.0000
49.3000	36.2500	0.0000	0.0000	0.0000	0.0000
49.3500	36.2500	0.0000	0.0000	0.0000	0.0000
49.4000	36.2500	0.0000	0.0000	0.0000	0.0000
49.4500	36.2500	0.0000	0.0000	0.0000	0.0000
49.5000	36.2500	0.0000	0.0000	0.0000	0.0000
49.5500	36.2500	0.0000	0.0000	0.0000	0.0000
49.6000	36.2500	0.0000	0.0000	0.0000	0.0000
49.6500	36.2500	0.0000	0.0000	0.0000	0.0000
49.7000	36.2500	0.0000	0.0000	0.0000	0.0000
49.7500	36.2500	0.0000	0.0000	0.0000	0.0000
49.8000	36.2500	0.0000	0.0000	0.0000	0.0000
49.8500	36.2500	0.0000	0.0000	0.0000	0.0000
49.9000	36.2500	0.0000	0.0000	0.0000	0.0000
49.9500	36.2500	0.0000	0.0000	0.0000	0.0000
50.0000	36.2500	0.0000	0.0000	0.0000	0.0000
50.0500	36.2500	0.0000	0.0000	0.0000	0.0000
50.1000	36.2500	0.0000	0.0000	0.0000	0.0000
50.1500	36.2500	0.0000	0.0000	0.0000	0.0000
50.2000	36.2500	0.0000	0.0000	0.0000	0.0000
50.2500	36.2500	0.0000	0.0000	0.0000	0.0000
50.3000	36.2500	0.0000	0.0000	0.0000	0.0000
50.3500	36.2500	0.0000	0.0000	0.0000	0.0000
50.4000	36.2500	0.0000	0.0000	0.0000	0.0000
50.4500	36.2500	0.0000	0.0000	0.0000	0.0000
50.5000	36.2500	0.0000	0.0000	0.0000	0.0000
50.5500	36.2500	0.0000	0.0000	0.0000	0.0000
50.6000	36.2500	0.0000	0.0000	0.0000	0.0000
50.6500	36.2500	0.0000	0.0000	0.0000	0.0000
50.7000	36.2500	0.0000	0.0000	0.0000	0.0000
50.7500	36.2500	0.0000	0.0000	0.0000	0.0000
50.8000	36.2500	0.0000	0.0000	0.0000	0.0000
50.8500	36.2500	0.0000	0.0000	0.0000	0.0000
50.9000	36.2500	0.0000	0.0000	0.0000	0.0000
50.9500	36.2500	0.0000	0.0000	0.0000	0.0000
51.0000	36.2500	0.0000	0.0000	0.0000	0.0000
51.0500	36.2500	0.0000	0.0000	0.0000	0.0000
51.1000	36.2500	0.0000	0.0000	0.0000	0.0000
51.1500	36.2500	0.0000	0.0000	0.0000	0.0000
51.2000	36.2500	0.0000	0.0000	0.0000	0.0000
51.2500	36.2500	0.0000	0.0000	0.0000	0.0000
51.3000	36.2500	0.0000	0.0000	0.0000	0.0000
51.3500	36.2500	0.0000	0.0000	0.0000	0.0000
51.4000	36.2500	0.0000	0.0000	0.0000	0.0000
51.4500	36.2500	0.0000	0.0000	0.0000	0.0000
51.5000	36.2500	0.0000	0.0000	0.0000	0.0000
51.5500	36.2500	0.0000	0.0000	0.0000	0.0000
51.6000	36.2500	0.0000	0.0000	0.0000	0.0000
51.6500	36.2500	0.0000	0.0000	0.0000	0.0000
51.7000	36.2500	0.0000	0.0000	0.0000	0.0000
51.7500	36.2500	0.0000	0.0000	0.0000	0.0000
51.8000	36.2500	0.0000	0.0000	0.0000	0.0000
51.8500	36.2500	0.0000	0.0000	0.0000	0.0000
51.9000	36.2500	0.0000	0.0000	0.0000	0.0000
51.9500	36.2500	0.0000	0.0000	0.0000	0.0000
52.0000	36.2500	0.0000	0.0000	0.0000	0.0000
52.0500	36.2500	0.0000	0.0000	0.0000	0.0000
52.1000	36.2500	0.0000	0.0000	0.0000	0.0000
52.1500	36.2500	0.0000	0.0000	0.0000	0.0000
52.2000	36.2500	0.0000	0.0000	0.0000	0.0000
52.2500	36.2500	0.0000	0.0000	0.0000	0.0000
52.3000	36.2500	0.0000	0.0000	0.0000	0.0000
52.3500	36.2500	0.0000	0.0000	0.0000	0.0000
52.4000	36.2500	0.0000	0.0000	0.0000	0.0000
52.4500	36.2500	0.0000	0.0000	0.0000	0.0000
52.5000	36.2500	0.0000	0.0000	0.0000	0.0000
52.5500	36.2500	0.0000	0.0000	0.0000	0.0000
52.6000	36.2500	0.0000	0.0000	0.0000	0.0000
52.6500	36.2500	0.0000	0.0000	0.0000	0.0000
52.7000	36.2500	0.0000	0.0000	0.0000	0.0000
52.7500	36.2500	0.0000	0.0000	0.0000	0.0000
52.8000	36.2500	0.0000	0.0000	0.0000	0.0000
52.8500	36.2500	0.0000	0.0000	0.0000	0.0000
52.9000	36.2500	0.0000	0.0000	0.0000	0.0000
52.9500	36.2500	0.0000	0.0000	0.0000	0.0000
53.0000	36.2500	0.0000	0.0000	0.0000	0.0000
53.0500	36.2500	0.0000	0.0000	0.0000	0.0000
53.1000	36.2500	0.0000	0.0000	0.0000	0.0000
53.1500	36.2500	0.0000	0.0000	0.0000	0.0000
53.2000	36.2500	0.0000	0.0000	0.0000	0.0000
53.2500	36.2500	0.0000	0.0000	0.0000	0.0000
53.3000	36.2500	0.0000	0.0000	0.0000	0.0000
53.3500	36.2500	0.0000	0.0000	0.0000	0.0000
53.4000	36.2500	0.0000	0.0000	0.0000	0.0000
53.4500	36.2500	0.0000	0.0000	0.0000	0.0000
53.5000	36.2500	0.0000	0.0000	0.0000	0.0000
53.5500	36.2500	0.0000	0.0000	0.0000	0.0000
53.6000	36.2500	0.0000	0.0000	0.0000	0.0000
53.6500	36.2500	0.0000	0.0000	0.0000	0.0000
53.7000	36.2500	0.0000	0.0000	0.0000	0.0000
53.7500	36.2500	0.0000	0.0000	0.0000	0.0000
53.8000	36.2500	0.0000	0.0000	0.0000	0.0000
53.8500	36.2500	0.0000	0.0000	0.0000	0.0000
53.9000	36.2500	0.0000	0.0000	0.0000	0.0000
53.9500	36.2500	0.0000	0.0000	0.0000	0.0000
54.0000	36.2500	0.0000	0.0000	0.0000	0.0000
54.0500	36.2500	0.0000	0.0000	0.0000	0.0000
54.1000	36.2500	0.0000	0.0000	0.0000	0.0000
54.1500	36.2500	0.0000	0.0000	0.0000	0.0000
54.2000	36.2500	0.0000	0.0000	0.0000	0.0000
54.2500	36.2500	0.0000	0.0000	0.0000	0.0000
54.3000	36.2500	0.0000	0.0000	0.0000	0.0000
54.3500	36.2500	0.0000	0.0000	0.0000	0.0000
54.4000	36.2500	0.0000	0.0000	0.0000	0.0000
54.4500	36.2500	0.0000	0.0000	0.0000	0.0000
54.5000	36.2500	0.0000	0.0000	0.0000	0.0000
54.5500	36.2500	0.0000	0.0000	0.0000	0.0000
54.6000	36.2500	0.0000	0.0000	0.0000	0.0000
54.6500	36.2500	0.0000	0.0000	0.0000	0.0000
54.7000	36.2500	0.0000	0.0000	0.0000	0.0000
54.7500	36.2500	0.0000	0.0000	0.0000	0.0000
54.8000	36.2500	0.0000	0.0000	0.0000	0.0000
54.8500	36.2500	0.0000	0.0000	0.0000	0.0000
54.9000	36.2500	0.0000	0.0000	0.0000	0.0000
54.9500	36.2500	0.0000	0.0000	0.0000	0.0000
55.0000	36.2500	0.0000	0.0000	0.0000	0.0000
46.8000	36.3000	0.0000	0.0000	0.0000	0.0000
46.8500	36.3000	0.0000	0.0000	0.0000	0.0000
46.9000	36.3000	0.0000	0.0000	0.0000	0.0000
46.9500	36.3000	0.0000	0.0000	0.0000	0.0000
47.0000	36.3000	0.0000	0.0000	0.0000	0.0000
47.0500	36.3000	0.0000	0.0000	0.0000	0.0000
47.1000	36.3000	0.0000	0.0000	0.0000	0.0000
47.1500	36.3000	0.0000	0.0000	0.0000	0.0000
47.2000	36.3000	0.0000	0.0000	0.0000	0.0000
47.2500	36.3000	0.0000	0.0000	0.0000	0.0000
47.3000	36.3000	0.0000	0.0000	0.0000	0.0000
47.3500	36.3000	0.0000	0.0000	0.0000	0.0000
47.4000	36.3000	0.0000	0.0000	0.0000	0.0000
47.4500	36.3000	0.0000	0.0000	0.0000	0.0000
47.5000	36.3000	0.0000	0.0000	0.0000	0.0000
47.5500	36.3000	0.0000	0.0000	0.0000	0.0000
47.6000	36.3000	0.0000	0.0000	0.0000	0.0000
47.6500	36.3000	0.0000	0.0000	0.0000	0.0000
47.7000	36.3000	0.0000	0.0000	0.0000	0.0000
47.7500	36.3000	0.0000	0.0000	0.0000	0.0000
47.8000	36.3000	0.0000	0.0000	0.0000	0.0000
47.8500	36.3000	0.0000	0.0000	0.0000	0.0000
47.9000	36.3000	0.0000	0.0000	0.0000	0.0000
47.9500	36.3000	0.0000	0.0000	0.0000	0.0000
48.0000	36.3000	0.0000	0.0000	0.0000	0.0000
48.0500	36.3000	0.0000	0.0000	0.0000	0.0000
48.1000	36.3000	0.0000	0.0000	0.0000	0.0000
48.1500	36.3000	0.0000	0.0000	0.0000	0.0000
48.2000	36.3000	0.0000	0.0000	0.0000	0.0000
48.2500	36.3000	0.0000	0.0000	0.0000	0.0000
48.3000	36.3000	0.0000	0.0000	0.0000	0.0000
48.3500	36.3000	0.0000	0.0000	0.0000	0.0000
48.4000	36.3000	0.0000	0.0000	0.0000	0.0000
48.4500	36.3000	0.0000	0.0000	0.0000	0.0000
48.5000	36.3000	0.0000	0.0000	0.0000	0.0000
48.5500	36.3000	0.0000	0.0000	0.0000	0.0000
48.6000	36.3000	0.0000	0.0000	0.0000	0.0000
48.6500	36.3000	0.0000	0.0000	0.0000	0.0000
48.7000	36.3000	0.0000	0.0000	0.0000	0.0000
48.7500	36.3000	0.0000	0.0000	0.0000	0.0000
48.8000	36.3000	0.0000	0.0000	0.0000	0.0000
48.8500	36.3000	0.0000	0.0000	0.0000	0.0000
48.9000	36.3000	0.0000	0.0000	0.0000	0.0000
48.9500	36.3000	0.0000	0.0000	0.0000	0.0000
49.0000	36.3000	0.0000	0.0000	0.0000	0.0000
49.0500	36.3000	0.0000	0.0000	0.0000	0.0000
49.1000	36.3000	0.0000	0.0000	0.0000	0.0000
49.1500	36.3000	0.0000	0.0000	0.0000	0.0000
49.2000	36.3000	0.0000	0.0000	0.0000	0.0000
49.2500	36.3000	0.0000	0.0000	0.0000	0.0000
49.3000	36.3000	0.0000	0.0000	0.0000	0.0000
49.3500	36.3000	0.0000	0.0000	0.0000	0.0000
49.4000	36.3000	0.0000	0.0000	0.0000	0.0000
49.4500	36.3000	0.0000	0.0000	0.0000	0.0000
49.5000	36.3000	0.0000	0.0000	0.0000	0.0000
49.5500	36.3000	0.0000	0.0000	0.0000	0.0000
49.6000	36.3000	0.0000	0.0000	0.0000	0.0000
49.6500	36.3000	0.0000	0.0000	0.0000	0.0000
49.7000	36.3000	0.0000	0.0000	0.0000	0.0000
49.7500	36.3000	0.0000	0.0000	0.0000	0.0000
49.8000	36.3000	0.0000	0.0000	0.0000	0.0000
49.8500	36.3000	0.0000	0.0000	0.0000	0.0000
49.9000	36.3000	0.0000	0.0000	0.0000	0.0000
49.9500	36.3000	0.0000	0.0000	0.0000	0.0000
50.0000	36.3000	0.0000	0.0000	0.0000	0.0000
50.0500	36.3000	0.0000	0.0000	0.0000	0.0000
50.1000	36.3000	0.0000	0.0000	0.0000	0.0000
50.1500	36.3000	0.0000	0.0000	0.0000	0.0000
50.2000	36.3000	0.0000	0.0000	0.0000	0.0000
50.2500	36.3000	0.0000	0.0000	0.0000	0.0000
50.3000	36.3000	0.0000	0.0000	0.0000	0.0000
50.3500	36.3000	0.0000	0.0000	0.0000	0.0000
50.4000	36.3000	0.0000	0.0000	0.0000	0.0000
50.4500	36.3000	0.0000	0.0000	0.0000	0.0000
50.5000	36.3000	0.0000	0.0000	0.0000	0.0000
50.5500	36.3000	0.0000	0.0000	0.0000	0.0000
50.6000	36.3000	0.0000	0.0000	0.0000	0.0000
50.6500	36.3000	0.0000	0.0000	0.0000	0.0000
50.7000	36.3000	0.0000	0.0000	0.0000	0.0000
50.7500	36.3000	0.0000	0.0000	0.0000	0.0000
50.8000	36.3000	0.0000	0.0000	0.0000	0.0000
50.8500	36.3000	0.0000	0.0000	0.0000	0.0000
50.9000	36.3000	0.0000	0.0000	0.0000	0.0000
50.9500	36.3000	0.0000	0.0000	0.0000	0.0000
51.0000	36.3000	0.0000	0.0000	0.0000	0.0000
51.0500	36.3000	0.0000	0.0000	0.0000	0.0000
51.1000	36.3000	0.0000	0.0000	0.0000	0.0000
51.1500	36.3000	0.0000	0.0000	0.0000	0.0000
51.2000	36.3000	0.0000	0.0000	0.0000	0.0000
51.2500	36.3000	0.0000	0.0000	0.0000	0.0000
51.3000	36.3000	0.0000	0.0000	0.0000	0.0000
51.3500	36.3000	0.0000	0.0000	0.0000	0.0000
51.4000	36.3000	0.0000	0.0000	0.0000	0.0000
51.4500	36.3000	0.0000	0.0000	0.0000	0.0000
51.5000	36.3000	0.0000	0.0000	0.0000	0.0000
51.5500	36.3000	0.0000	0.0000	0.0000	0.0000
51.6000	36.3000	0.0000	0.0000	0.0000	0.0000
51.6500	36.3000	0.0000	0.0000	0.0000	0.0000
51.7000	36.3000	0.0000	0.0000	0.0000	0.0000
51.7500	36.3000	0.0000	0.0000	0.0000	0.0000
51.8000	36.3000	0.0000	0.0000	0.0000	0.0000
51.8500	36.3000	0.0000	0.0000	0.0000	0.0000
51.9000	36.3000	0.0000	0.0000	0.0000	0.0000
51.9500	36.3000	0.0000	0.0000	0.0000	0.0000
52.0000	36.3000	0.0000	0.0000	0.0000	0.0000
52.0500	36.3000	0.0000	0.0000	0.0000	0.0000
52.1000	36.3000	0.0000	0.0000	0.0000	0.0000
52.1500	36.3000	0.0000	0.0000	0.0000	0.0000
52.2000	36.3000	0.0000	0.0000	0.0000	0.0000
52.2500	36.3000	0.0000	0.0000	0.0000	0.0000
52.3000	36.3000	0.0000	0.0000	0.0000	0.0000
52.3500	36.3000	0.0000	0.0000	0.0000	0.0000
52.4000	36.3000	0.0000	0.0000	0.0000	0.0000
52.4500	36.3000	0.0000	0.0000	0.0000	0.0000
52.5000	36.3000	0.0000	0.0000	0.0000	0.0000
52.5500	36.3000	0.0000	0.0000	0.0000	0.0000
52.6000	36.3000	0.0000	0.0000	0.0000	0.0000
52.6500	36.3000	0.0000	0.0000	0.0000	0.0000
52.7000	36.3000	0.0000	0.0000	0.0000	0.0000
52.7500	36.3000	0.0000	0.0000	0.0000	0.0000
52.8000	36.3000	0.0000	0.0000	0.0000	0.0000
52.8500	36.3000	0.0000	0.0000	0.0000	0.0000
52.9000	36.3000	0.0000	0.0000	0.0000	0.0000
52.9500	36.3000	0.0000	0.0000	0.0000	0.0000
53.0000	36.3000	0.0000	0.0000	0.0000	0.0000
53.0500	36.3000	0.0000	0.0000	0.0000	0.0000
53.1000	36.3000	0.0000	0.0000	0.0000	0.0000
53.1500	36.3000	0.0000	0.0000	0.0000	0.0000
53.2000	36.3000	0.0000	0.0000	0.0000	0.0000
53.2500	36.3000	0.0000	0.0000	0.0000	0.0000
53.3000	36.3000	0.0000	0.0000	0.0000	0.0000
53.3500	36.3000	0.0000	0.0000	0.0000	0.0000
53.4000	36.3000	0.0000	0.0000	0.0000	0.0000
53.4500	36.3000	0.0000	0.0000	0.0000	0.0000
53.5000	36.3000	0.0000	0.0000	0.0000	0.0000
53.5500	36.3000	0.0000	0.0000	0.0000	0.0000
53.6000	36.3000	0.0000	0.0000	0.0000	0.0000
53.6500	36.3000	0.0000	0.0000	0.0000	0.0000
53.7000	36.3000	0.0000	0.0000	0.0000	0.0000
53.7500	36.3000	0.0000	0.0000	0.0000	0.0000
53.8000	36.3000	0.0000	0.0000	0.0000	0.0000
53.8500	36.3000	0.0000	0.0000	0.0000	0.0000
53.9000	36.3000	0.0000	0.0000	0.0000	0.0000
53.9500	36.3000	0.0000	0.0000	0.0000	0.0000
54.0000	36.3000	0.0000	0.0000	0.0000	0.0000
54.0500	36.3000	0.0000	0.0000	0.0000	0.0000
54.1000	36.3000	0.0000	0.0000	0.0000	0.0000
54.1500	36.3000	0.0000	0.0000	0.0000	0.0000
54.2000	36.3000	0.0000	0.0000	0.0000	0.0000
54.2500	36.3000	0.0000	0.0000	0.0000	0.0000
54.3000	36.3000	0.0000	0.0000	0.0000	0.0000
54.3500	36.3000	0.0000	0.0000	0.0000	0.0000
54.4000	36.3000	0.0000	0.0000	0.0000	0.0000
54.4500	36.3000	0.0000	0.0000	0.0000	0.0000
54.5000	36.3000	0.0000	0.0000	0.0000	0.0000
54.5500	36.3000	0.0000	0.0000	0.0000	0.0000
54.6000	36.3000	0.0000	0.0000	0.0000	0.0000
54.6500	36.3000	0.0000	0.0000	0.0000	0.0000
54.7000	36.3000	0.0000	0.0000	0.0000	0.0000
54.7500	36.3000	0.0000	0.0000	0.0000	0.0000
54.8000	36.3000	0.0000	0.0000	0.0000	0.0000
54.8500	36.3000	0.0000	0.0000	0.0000	0.0000
54.9000	36.3000	0.0000	0.0000	0.0000	0.0000
54.9500	36.3000	0.0000	0.0000	0.0000	0.0000
55.0000	36.3000	0.0000	0.0000	0.0000	0.0000
46.8000	36.3500	0.0000	0.0000	0.0000	0.0000
46.8500	36.3500	0.0000	0.0000	0.0000	0.0000
46.9000	36.3500	0.0000	0.0000	0.0000	0.0000
46.9500	36.3500	0.0000	0.0000	0.0000	0.0000
47.0000	36.3500	0.0000	0.0000	0.0000	0.0000
47.0500	36.3500	0.0000	0.0000	0.0000	0.0000
47.1000	36.3500	0.0000	0.0000	0.0000	0.0000
47.1500	36.3500	0.0000	0.0000	0.0000	0.0000
47.2000	36.3500	0.0000	0.0000	0.0000	0.0000
47.2500	36.3500	0.0000	0.0000	0.0000	0.0000
47.3000	36.3500	0.0000	0.0000	0.0000	0.0000
47.3500	36.3500	0.0000	0.0000	0.0000	0.0000
47.4000	36.3500	0.0000	0.0000	0.0000	0.0000
47.4500	36.3500	0.0000	0.0000	0.0000	0.0000
47.5000	36.3500	0.0000	0.0000	0.0000	0.0000
47.5500	36.3500	0.0000	0.0000	0.0000	0.0000
47.6000	36.3500	0.0000	0.0000	0.0000	0.0000
47.6500	36.3500	0.0000	0.0000	0.0000	0.0000
47.7000	36.3500	0.0000	0.0000	0.0000	0.0000
47.7500	36.3500	0.0000	0.0000	0.0000	0.0000
47.8000	36.3500	0.0000	0.0000	0.0000	0.0000
47.8500	36.3500	0.0000	0.0000	0.0000	0.0000
47.9000	36.3500	0.0000	0.0000	0.0000	0.0000
47.9500	36.3500	0.0000	0.0000	0.0000	0.0000
48.0000	36.3500	0.0000	0.0000	0.0000	0.0000
48.0500	36.3500	0.0000	0.0000	0.0000	0.0000
48.1000	36.3500	0.0000	0.0000	0.0000	0.0000
48.1500	36.3500	0.0000	0.0000	0.0000	0.0000
48.2000	36.3500	0.0000	0.0000	0.0000	0.0000
48.2500	36.3500	0.0000	0.0000	0.0000	0.0000
48.3000	36.3500	0.0000	0.0000	0.0000	0.0000
48.3500	36.3500	0.0000	0.0000	0.0000	0.0000
48.4000	36.3500	0.0000	0.0000	0.0000	0.0000
48.4500	36.3500	0.0000	0.0000	0.0000	0.0000
48.5000	36.3500	0.0000	0.0000	0.0000	0.0000
48.5500	36.3500	0.0000	0.0000	0.0000	0.0000
48.6000	36.3500	0.0000	0.0000	0.0000	0.0000
48.6500	36.3500	0.0000	0.0000	0.0000	0.0000
48.7000	36.3500	0.0000	0.0000	0.0000	0.0000
48.7500	36.3500	0.0000	0.0000	0.0000	0.0000
48.8000	36.3500	0.0000	0.0000	0.0000	0.0000
48.8500	36.3500	0.0000	0.0000	0.0000	0.0000
48.9000	36.3500	0.0000	0.0000	0.0000	0.0000
48.9500	36.3500	0.0000	0.0000	0.0000	0.0000
49.0000	36.3500	0.0000	0.0000	0.0000	0.0000
49.0500	36.3500	0.0000	0.0000	0.0000	0.0000
49.1000	36.3500	0.0000	0.0000	0.0000	0.0000
49.1500	36.3500	0.0000	0.0000	0.0000	0.0000
49.2000	36.3500	0.0000	0.0000	0.0000	0.0000
49.2500	36.3500	0.0000	0.0000	0.0000	0.0000
49.3000	36.3500	0.0000	0.0000	0.0000	0.0000
49.3500	36.3500	0.0000	0.0000	0.0000	0.0000
49.4000	36.3500	0.0000	0.0000	0.0000	0.0000
49.4500	36.3500	0.0000	0.0000	0.0000	0.0000
49.5000	36.3500	0.0000	0.0000	0.0000	0.0000
49.5500	36.3500	0.0000	0.0000	0.0000	0.0000
49.6000	36.3500	0.0000	0.0000	0.0000	0.0000
49.6500	36.3500	0.0000	0.0000	0.0000	0.0000
49.7000	36.3500	0.0000	0.0000	0.0000	0.0000
49.7500	36.3500	0.0000	0.0000	0.0000	0.0000
49.8000	36.3500	0.0000	0.0000	0.0000	0.0000
49.8500	36.3500	0.0000	0.0000	0.0000	0.0000
49.9000	36.3500	0.0000	0.0000	0.0000	0.0000
49.9500	36.3500	0.0000	0.0000	0.0000	0.0000
50.0000	36.3500	0.0000	0.0000	0.0000	0.0000
50.0500	36.3500	0.0000	0.0000	0.0000	0.0000
50.1000	36.3500	0.0000	0.0000	0.0000	0.0000
50.1500	36.3500	0.0000	0.0000	0.0000	0.0000
50.2000	36.3500	0.0000	0.0000	0.0000	0.0000
50.2500	36.3500	0.0000	0.0000	0.0000	0.0000
50.3000	36.3500	0.0000	0.0000	0.0000	0.0000
50.3500	36.3500	0.0000	0.0000	0.0000	0.0000
50.4000	36.3500	0.0000	0.0000	0.0000	0.0000
50.4500	36.3500	0.0000	0.0000	0.0000	0.0000
50.5000	36.3500	0.0000	0.0000	0.0000	0.0000
50.5500	36.3500	0.0000	0.0000	0.0000	0.0000
50.6000	36.3500	0.0000	0.0000	0.0000	0.0000
50.6500	36.3500	0.0000	0.0000	0.0000	0.0000
50.7000	36.3500	0.0000	0.0000	0.0000	0.0000
50.7500	36.3500	0.0000	0.0000	0.0000	0.0000
50.8000	36.3500	0.0000	0.0000	0.0000	0.0000
50.8500	36.3500	0.0000	0.0000	0.0000	0.0000
50.9000	36.3500	0.0000	0.0000	0.0000	0.0000
50.9500	36.3500	0.0000	0.0000	0.0000	0.0000
51.0000	36.3500	0.0000	0.0000	0.0000	0.0000
51.0500	36.3500	0.0000	0.0000	0.0000	0.0000
51.1000	36.3500	0.0000	0.0000	0.0000	0.0000
51.1500	36.3500	0.0000	0.0000	0.0000	0.0000
51.2000	36.3500	0.0000	0.0000	0.0000	0.0000
51.2500	36.3500	0.0000	0.0000	0.0000	0.0000
51.3000	36.3500	0.0000	0.0000	0.0000	0.0000
51.3500	36.3500	0.0000	0.0000	0.0000	0.0000
51.4000	36.3500	0.0000	0.0000	0.0000	0.0000
51.4500	36.3500	0.0000	0.0000	0.0000	0.0000
51.5000	36.3500	0.0000	0.0000	0.0000	0.0000
51.5500	36.3500	0.0000	0.0000	0.0000	0.0000
51.6000	36.3500	0.0000	0.0000	0.0000	0.0000
51.6500	36.3500	0.0000	0.0000	0.0000	0.0000
51.7000	36.3500	0.0000	0.0000	0.0000	0.0000
51.7500	36.3500	0.0000	0.0000	0.0000	0.0000
51.8000	36.3500	0.0000	0.0000	0.0000	0.0000
51.8500	36.3500	0.0000	0.0000	0.0000	0.0000
51.9000	36.3500	0.0000	0.0000	0.0000	0.0000
51.9500	36.3500	0.0000	0.0000	0.0000	0.0000
52.0000	36.3500	0.0000	0.0000	0.0000	0.0000
52.0500	36.3500	0.0000	0.0000	0.0000	0.0000
52.1000	36.3500	0.0000	0.0000	0.0000	0.0000
52.1500	36.3500	0.0000	0.0000	0.0000	0.0000
52.2000	36.3500	0.0000	0.0000	0.0000	0.0000
52.2500	36.3500	0.0000	0.0000	0.0000	0.0000
52.3000	36.3500	0.0000	0.0000	0.0000	0.0000
52.3500	36.3500	0.0000	0.0000	0.0000	0.0000
52.4000	36.3500	0.0000	0.0000	0.0000	0.0000
52.4500	36.3500	0.0000	0.0000	0.0000	0.0000
52.5000	36.3500	0.0000	0.0000	0.0000	0.0000
52.5500	36.3500	0.0000	0.0000	0.0000	0.0000
52.6000	36.3500	0.0000	0.0000	0.0000	0.0000
52.6500	36.3500	0.0000	0.0000	0.0000	0.0000
52.7000	36.3500	0.0000	0.0000	0.0000	0.0000
52.7500	36.3500	0.0000	0.0000	0.0000	0.0000
52.8000	36.3500	0.0000	0.0000	0.0000	0.0000
52.8500	36.3500	0.0000	0.0000	0.0000	0.0000
52.9000	36.3500	0.0000	0.0000	0.0000	0.0000
52.9500	36.3500	0.0000	0.0000	0.0000	0.0000
53.0000	36.3500	0.0000	0.0000	0.0000	0.0000
53.0500	36.3500	0.0000	0.0000	0.0000	0.0000
53.1000	36.3500	0.0000	0.0000	0.0000	0.0000
53.1500	36.3500	0.0000	0.0000	0.0000	0.0000
53.2000	36.3500	0.0000	0.0000	0.0000	0.0000
53.2500	36.3500	0.0000	0.0000	0.0000	0.0000
53.3000	36.3500	0.0000	0.0000	0.0000	0.0000
53.3500	36.3500	0.0000	0.0000	0.0000	0.0000
53.4000	36.3500	0.0000	0.0000	0.0000	0.0000
53.4500	36.3500	0.0000	0.0000	0.0000	0.0000
53.5000	36.3500	0.0000	0.0000	0.0000	0.0000
53.5500	36.3500	0.0000	0.0000	0.0000	0.0000
53.6000	36.3500	0.0000	0.0000	0.0000	0.0000
53.6500	36.3500	0.0000	0.0000	0.0000	0.0000
53.7000	36.3500	0.0000	0.0000	0.0000	0.0000
53.7500	36.3500	0.0000	0.0000	0.0000	0.0000
53.8000	36.3500	0.0000	0.0000	0.0000	0.0000
53.8500	36.3500	0.0000	0.0000	0.0000	0.0000
53.9000	36.3500	0.0000	0.0000	0.0000	0.0000
53.9500	36.3500	0.0000	0.0000	0.0000	0.0000
54.0000	36.3500	0.0000	0.0000	0.0000	0.0000
54.0500	36.3500	0.0000	0.0000	0.0000	0.0000
54.1000	36.3500	0.0000	0.0000	0.0000	0.0000
54.1500	36.3500	0.0000	0.0000	0.0000	0.0000
54.2000	36.3500	0.0000	0.0000	0.0000	0.0000
54.2500	36.3500	0.0000	0.0000	0.0000	0.0000
54.3000	36.3500	0.0000	0.0000	0.0000	0.0000
54.3500	36.3500	0.0000	0.0000	0.0000	0.0000
54.4000	36.3500	0.0000	0.0000	0.0000	0.0000
54.4500	36.3500	0.0000	0.0000	0.0000	0.0000
54.5000	36.3500	0.0000	0.0000	0.0000	0.0000
54.5500	36.3500	0.0000	0.0000	0.0000	0.0000
54.6000	36.3500	0.0000	0.0000	0.0000	0.0000
54.6500	36.3500	0.0000	0.0000	0.0000	0.0000
54.7000	36.3500	0.0000	0.0000	0.0000	0.0000
54.7500	36.3500	0.0000	0.0000	0.0000	0.0000
54.8000	36.3500	0.0000	0.0000	0.0000	0.0000
54.8500	36.3500	0.0000	0.0000	0.0000	0.0000
54.9000	36.3500	0.0000	0.0000	0.0000	0.0000
54.9500	36.3500	0.0000	0.0000	0.0000	0.0000
55.0000	36.3500	0.0000	0.0000	0.0000	0.0000
46.8000	36.4000	0.0000	0.0000	0.0000	0.0000
46.8500	36.4000	0.0000	0.0000	0.0000	0.0000
46.9000	36.4000	0.0000	0.0000	0.0000	0.0000
46.9500	36.4000	0.0000	0.0000	0.0000	0.0000
47.0000	36.4000	0.0000	0.0000	0.0000	0.0000
47.0500	36.4000	0.0000	0.0000	0.0000	0.0000
47.1000	36.4000	0.0000	0.0000	0.0000	0.0000
47.1500	36.4000	0.0000	0.0000	0.0000	0.0000
47.2000	36.4000	0.0000	0.0000	0.0000	0.0000
47.2500	36.4000	0.0000	0.0000	0.0000	0.0000
47.3000	36.4000	0.0000	0.0000	0.0000	0.0000
47.3500	36.4000	0.0000	0.0000	0.0000	0.0000
47.4000	36.4000	0.0000	0.0000	0.0000	0.0000
47.4500	36.4000	0.0000	0.0000	0.0000	0.0000
47.5000	36.4000	0.0000	0.0000	0.0000	0.0000
47.5500	36.4000	0.0000	0.0000	0.0000	0.0000
47.6000	36.4000	0.0000	0.0000	0.0000	0.0000
47.6500	36.4000	0.0000	0.0000	0.0000	0.0000
47.7000	36.4000	0.0000	0.0000	0.0000	0.0000
47.7500	36.4000	0.0000	0.0000	0.0000	0.0000
47.8000	36.4000	0.0000	0.0000	0.0000	0.0000
47.8500	36.4000	0.0000	0.0000	0.0000	0.0000
47.9000	36.4000	0.0000	0.0000	0.0000	0.0000
47.9500	36.4000	0.0000	0.0000	0.0000	0.0000
48.0000	36.4000	0.0000	0.0000	0.0000	0.0000
48.0500	36.4000	0.0000	0.0000	0.0000	0.0000
48.1000	36.4000	0.0000	0.0000	0.0000	0.0000
48.1500	36.4000	0.0000	0.0000	0.0000	0.0000
48.2000	36.4000	0.0000	0.0000	0.0000	0.0000
48.2500	36.4000	0.0000	0.0000	0.0000	0.0000
48.3000	36.4000	0.0000	0.0000	0.0000	0.0000
48.3500	36.4000	0.0000	0.0000	0.0000	0.0000
48.4000	36.4000	0.0000	0.0000	0.0000	0.0000
48.4500	36.4000	0.0000	0.0000	0.0000	0.0000
48.5000	36.4000	0.0000	0.0000	0.0000	0.0000
48.5500	36.4000	0.0000	0.0000	0.0000	0.0000
48.6000	36.4000	0.0000	0.0000	0.0000	0.0000
48.6500	36.4000	0.0000	0.0000	0.0000	0.0000
48.7000	36.4000	0.0000	0.0000	0.0000	0.0000
48.7500	36.4000	0.0000	0.0000	0.0000	0.0000
48.8000	36.4000	0.0000	0.0000	0.0000	0.0000
48.8500	36.4000	0.0000	0.0000	0.0000	0.0000
48.9000	36.4000	0.0000	0.0000	0.0000	0.0000
48.9500	36.4000	0.0000	0.0000	0.0000	0.0000
49.0000	36.4000	0.0000	0.0000	0.0000	0.0000
49.0500	36.4000	0.0000	0.0000	0.0000	0.0000
49.1000	36.4000	0.0000	0.0000	0.0000	0.0000
49.1500	36.4000	0.0000	0.0000	0.0000	0.0000
49.2000	36.4000	0.0000	0.0000	0.0000	0.0000
49.2500	36.4000	0.0000	0.0000	0.0000	0.0000
49.3000	36.4000	0.0000	0.0000	0.0000	0.0000
49.3500	36.4000	0.0000	0.0000	0.0000	0.0000
49.4000	36.4000	0.0000	0.0000	0.0000	0.0000
49.4500	36.4000	0.0000	0.0000	0.0000	0.0000
49.5000	36.4000	0.0000	0.0000	0.0000	0.0000
49.5500	36.4000	0.0000	0.0000	0.0000	0.0000
49.6000	36.4000	0.0000	0.0000	0.0000	0.0000
49.6500	36.4000	0.0000	0.0000	0.0000	0.0000
49.7000	36.4000	0.0000	0.0000	0.0000	0.0000
49.7500	36.4000	0.0000	0.0000	0.0000	0.0000
49.8000	36.4000	0.0000	0.0000	0.0000	0.0000
49.8500	36.4000	0.0000	0.0000	0.0000	0.0000
49.9000	36.4000	0.0000	0.0000	0.0000	0.0000
49.9500	36.4000	0.0000	0.0000	0.0000	0.0000
50.0000	36.4000	0.0000	0.0000	0.0000	0.0000
50.0500	36.4000	0.0000	0.0000	0.0000	0.0000
50.1000	36.4000	0.0000	0.0000	0.0000	0.0000
50.1500	36.4000	0.0000	0.0000	0.0000	0.0000
50.2000	36.4000	0.0000	0.0000	0.0000	0.0000
50.2500	36.4000	0.0000	0.0000	0.0000	0.0000
50.3000	36.4000	0.0000	0.0000	0.0000	0.0000
50.3500	36.4000	0.0000	0.0000	0.0000	0.0000
50.4000	36.4000	0.0000	0.0000	0.0000	0.0000
50.4500	36.4000	0.0000	0.0000	0.0000	0.0000
50.5000	36.4000	0.0000	0.0000	0.0000	0.0000
50.5500	36.4000	0.0000	0.0000	0.0000	0.0000
50.6000	36.4000	0.0000	0.0000	0.0000	0.0000
50.6500	36.4000	0.0000	0.0000	0.0000	0.0000
50.7000	36.4000	0.0000	0.0000	0.0000	0.0000
50.7500	36.4000	0.0000	0.0000	0.0000	0.0000
50.8000	36.4000	0.0000	0.0000	0.0000	0.0000
50.8500	36.4000	0.0000	0.0000	0.0000	0.0000
50.9000	36.4000	0.0000	0.0000	0.0000	0.0000
50.9500	36.4000	0.0000	0.0000	0.0000	0.0000
51.0000	36.4000	0.0000	0.0000	0.0000	0.0000
51.0500	36.4000	0.0000	0.0000	0.0000	0.0000
51.1000	36.4000	0.0000	0.0000	0.0000	0.0000
51.1500	36.4000	0.0000	0.0000	0.0000	0.0000
51.2000	36.4000	0.0000	0.0000	0.0000	0.0000
51.2500	36.4000	0.0000	0.0000	0.0000	0.0000
51.3000	36.4000	0.0000	0.0000	0.0000	0.0000
51.3500	36.4000	0.0000	0.0000	0.0000	0.0000
51.4000	36.4000	0.0000	0.0000	0.0000	0.0000
51.4500	36.4000	0.0000	0.0000	0.0000	0.0000
51.5000	36.4000	0.0000	0.0000	0.0000	0.0000
51.5500	36.4000	0.0000	0.0000	0.0000	0.0000
51.6000	36.4000	0.0000	0.0000	0.0000	0.0000
51.6500	36.4000	0.0000	0.0000	0.0000	0.0000
51.7000	36.4000	0.0000	0.0000	0.0000	0.0000
51.7500	36.4000	0.0000	0.0000	0.0000	0.0000
51.8000	36.4000	0.0000	0.0000	0.0000	0.0000
51.8500	36.4000	0.0000	0.0000	0.0000	0.0000
51.9000	36.4000	0.0000	0.0000	0.0000	0.0000
51.9500	36.4000	0.0000	0.0000	0.0000	0.0000
52.0000	36.4000	0.0000	0.0000	0.0000	0.0000
52.0500	36.4000	0.0000	0.0000	0.0000	0.0000
52.1000	36.4000	0.0000	0.0000	0.0000	0.0000
52.1500	36.4000	0.0000	0.0000	0.0000	0.0000
52.2000	36.4000	0.0000	0.0000	0.0000	0.0000
52.2500	36.4000	0.0000	0.0000	0.0000	0.0000
52.3000	36.4000	0.0000	0.0000	0.0000	0.0000
52.3500	36.4000	0.0000	0.0000	0.0000	0.0000
52.4000	36.4000	0.0000	0.0000	0.0000	0.0000
52.4500	36.4000	0.0000	0.0000	0.0000	0.0000
52.5000	36.4000	0.0000	0.0000	0.0000	0.0000
52.5500	36.4000	0.0000	0.0000	0.0000	0.0000
52.6000	36.4000	0.0000	0.0000	0.0000	0.0000
52.6500	36.4000	0.0000	0.0000	0.0000	0.0000
52.7000	36.4000	0.0000	0.0000	0.0000	0.0000
52.7500	36.4000	0.0000	0.0000	0.0000	0.0000
52.8000	36.4000	0.0000	0.0000	0.0000	0.0000
52.8500	36.4000	0.0000	0.0000	0.0000	0.0000
52.9000	36.4000	0.0000	0.0000	0.0000	0.0000
52.9500	36.4000	0.0000	0.0000	0.0000	0.0000
53.0000	36.4000	0.0000	0.0000	0.0000	0.0000
53.0500	36.4000	0.0000	0.0000	0.0000	0.0000
53.1000	36.4000	0.0000	0.0000	0.0000	0.0000
53.1500	36.4000	0.0000	0.0000	0.0000	0.0000
53.2000	36.4000	0.0000	0.0000	0.0000	0.0000
53.2500	36.4000	0.0000	0.0000	0.0000	0.0000
53.3000	36.4000	0.0000	0.0000	0.0000	0.0000
53.3500	36.4000	0.0000	0.0000	0.0000	0.0000
53.4000	36.4000	0.0000	0.0000	0.0000	0.0000
53.4500	36.4000	0.0000	0.0000	0.0000	0.0000
53.5000	36.4000	0.0000	0.0000	0.0000	0.0000
53.5500	36.4000	0.0000	0.0000	0.0000	0.0000
53.6000	36.4000	0.0000	0.0000	0.0000	0.0000
53.6500	36.4000	0.0000	0.0000	0.0000	0.0000
53.7000	36.4000	0.0000	0.0000	0.0000	0.0000
53.7500	36.4000	0.0000	0.0000	0.0000	0.0000
53.8000	36.4000	0.0000	0.0000	0.0000	0.0000
53.8500	36.4000	0.0000	0.0000	0.0000	0.0000
53.9000	36.4000	0.0000	0.0000	0.0000	0.0000
53.9500	36.4000	0.0000	0.0000	0.0000	0.0000
54.0000	36.4000	0.0000	0.0000	0.0000	0.0000
54.0500	36.4000	0.0000	0.0000	0.0000	0.0000
54.1000	36.4000	0.0000	0.0000	0.0000	0.0000
54.1500	36.4000	0.0000	0.0000	0.0000	0.0000
54.2000	36.4000	0.0000	0.0000	0.0000	0.0000
54.2500	36.4000	0.0000	0.0000	0.0000	0.0000
54.3000	36.4000	0.0000	0.0000	0.0000	0.0000
54.3500	36.4000	0.0000	0.0000	0.0000	0.0000
54.4000	36.4000	0.0000	0.0000	0.0000	0.0000
54.4500	36.4000	0.0000	0.0000	0.0000	0.0000
54.5000	36.4000	0.0000	0.0000	0.0000	0.0000
54.5500	36.4000	0.0000	0.0000	0.0000	0.0000
54.6000	36.4000	0.0000	0.0000	0.0000	0.0000
54.6500	36.4000	0.0000	0.0000	0.0000	0.0000
54.7000	36.4000	0.0000	0.0000	0.0000	0.0000
54.7500	36.4000	0.0000	0.0000	0.0000	0.0000
54.8000	36.4000	0.0000	0.0000	0.0000	0.0000
54.8500	36.4000	0.0000	0.0000	0.0000	0.0000
54.9000	36.4000	0.0000	0.0000	0.0000	0.0000
54.9500	36.4000	0.0000	0.0000	0.0000	0.0000
55.0000	36.4000	0.0000	0.0000	0.0000	0.0000
46.8000	36.4500	0.0000	0.0000	0.0000	0.0000
46.8500	36.4500	0.0000	0.0000	0.0000	0.0000
46.9000	36.4500	0.0000	0.0000	0.0000	0.0000
46.9500	36.4500	0.0000	0.0000	0.0000	0.0000
47.0000	36.4500	0.0000	0.0000	0.0000	0.0000
47.0500	36.4500	0.0000	0.0000	0.0000	0.0000
47.1000	36.4500	0.0000	0.0000	0.0000	0.0000
47.1500	36.4500	0.0000	0.0000	0.0000	0.0000
47.2000	36.4500	0.0000	0.0000	0.0000	0.0000
47.2500	36.4500	0.0000	0.0000	0.0000	0.0000
47.3000	36.4500	0.0000	0.0000	0.0000	0.0000
47.3500	36.4500	0.0000	0.0000	0.0000	0.0000
47.4000	36.4500	0.0000	0.0000	0.0000	0.0000
47.4500	36.4500	0.0000	0.0000	0.0000	0.0000
47.5000	36.4500	0.0000	0.0000	0.0000	0.0000