TITLE = "Wave Graphs for Caspian Sea"
VARIABLES = "X" , "Y" , "Hs" , "u" , "v" , "Mask"
TEXT
CS=FRAME
X=27.5	Y=92.5
ZN=1
C=BLACK
HU=POINT
LS=1	AN=LEFT
F=TIMES-BOLD
H=16	A=0
T="Forecast for 00 UTC Tue. 07 Jun 2016"
ZONE
T="1" , I=165 , J=221 , K=1 , F=POINT
    46.800    36.250     0.000     0.000     0.000     0.000
    46.850    36.250     0.000     0.000     0.000     0.000
    46.900    36.250     0.000     0.000     0.000     0.000
    46.950    36.250     0.000     0.000     0.000     0.000
    47.000    36.250     0.000     0.000     0.000     0.000
    47.050    36.250     0.000     0.000     0.000     0.000
    47.100    36.250     0.000     0.000     0.000     0.000
    47.150    36.250     0.000     0.000     0.000     0.000
    47.200    36.250     0.000     0.000     0.000     0.000
    47.250    36.250     0.000     0.000     0.000     0.000
    47.300    36.250     0.000     0.000     0.000     0.000
    47.350    36.250     0.000     0.000     0.000     0.000
    47.400    36.250     0.000     0.000     0.000     0.000
    47.450    36.250     0.000     0.000     0.000     0.000
    47.500    36.250     0.000     0.000     0.000     0.000
    47.550    36.250     0.000     0.000     0.000     0.000
    47.600    36.250     0.000     0.000     0.000     0.000
    47.650    36.250     0.000     0.000     0.000     0.000
    47.700    36.250     0.000     0.000     0.000     0.000
    47.750    36.250     0.000     0.000     0.000     0.000
    47.800    36.250     0.000     0.000     0.000     0.000
    47.850    36.250     0.000     0.000     0.000     0.000
    47.900    36.250     0.000     0.000     0.000     0.000
    47.950    36.250     0.000     0.000     0.000     0.000
    48.000    36.250     0.000     0.000     0.000     0.000
    48.050    36.250     0.000     0.000     0.000     0.000
    48.100    36.250     0.000     0.000     0.000     0.000
    48.150    36.250     0.000     0.000     0.000     0.000
    48.200    36.250     0.000     0.000     0.000     0.000
    48.250    36.250     0.000     0.000     0.000     0.000
    48.300    36.250     0.000     0.000     0.000     0.000
    48.350    36.250     0.000     0.000     0.000     0.000
    48.400    36.250     0.000     0.000     0.000     0.000
    48.450    36.250     0.000     0.000     0.000     0.000
    48.500    36.250     0.000     0.000     0.000     0.000
    48.550    36.250     0.000     0.000     0.000     0.000
    48.600    36.250     0.000     0.000     0.000     0.000
    48.650    36.250     0.000     0.000     0.000     0.000
    48.700    36.250     0.000     0.000     0.000     0.000
    48.750    36.250     0.000     0.000     0.000     0.000
    48.800    36.250     0.000     0.000     0.000     0.000
    48.850    36.250     0.000     0.000     0.000     0.000
    48.900    36.250     0.000     0.000     0.000     0.000
    48.950    36.250     0.000     0.000     0.000     0.000
    49.000    36.250     0.000     0.000     0.000     0.000
    49.050    36.250     0.000     0.000     0.000     0.000
    49.100    36.250     0.000     0.000     0.000     0.000
    49.150    36.250     0.000     0.000     0.000     0.000
    49.200    36.250     0.000     0.000     0.000     0.000
    49.250    36.250     0.000     0.000     0.000     0.000
    49.300    36.250     0.000     0.000     0.000     0.000
    49.350    36.250     0.000     0.000     0.000     0.000
    49.400    36.250     0.000     0.000     0.000     0.000
    49.450    36.250     0.000     0.000     0.000     0.000
    49.500    36.250     0.000     0.000     0.000     0.000
    49.550    36.250     0.000     0.000     0.000     0.000
    49.600    36.250     0.000     0.000     0.000     0.000
    49.650    36.250     0.000     0.000     0.000     0.000
    49.700    36.250     0.000     0.000     0.000     0.000
    49.750    36.250     0.000     0.000     0.000     0.000
    49.800    36.250     0.000     0.000     0.000     0.000
    49.850    36.250     0.000     0.000     0.000     0.000
    49.900    36.250     0.000     0.000     0.000     0.000
    49.950    36.250     0.000     0.000     0.000     0.000
    50.000    36.250     0.000     0.000     0.000     0.000
    50.050    36.250     0.000     0.000     0.000     0.000
    50.100    36.250     0.000     0.000     0.000     0.000
    50.150    36.250     0.000     0.000     0.000     0.000
    50.200    36.250     0.000     0.000     0.000     0.000
    50.250    36.250     0.000     0.000     0.000     0.000
    50.300    36.250     0.000     0.000     0.000     0.000
    50.350    36.250     0.000     0.000     0.000     0.000
    50.400    36.250     0.000     0.000     0.000     0.000
    50.450    36.250     0.000     0.000     0.000     0.000
    50.500    36.250     0.000     0.000     0.000     0.000
    50.550    36.250     0.000     0.000     0.000     0.000
    50.600    36.250     0.000     0.000     0.000     0.000
    50.650    36.250     0.000     0.000     0.000     0.000
    50.700    36.250     0.000     0.000     0.000     0.000
    50.750    36.250     0.000     0.000     0.000     0.000
    50.800    36.250     0.000     0.000     0.000     0.000
    50.850    36.250     0.000     0.000     0.000     0.000
    50.900    36.250     0.000     0.000     0.000     0.000
    50.950    36.250     0.000     0.000     0.000     0.000
    51.000    36.250     0.000     0.000     0.000     0.000
    51.050    36.250     0.000     0.000     0.000     0.000
    51.100    36.250     0.000     0.000     0.000     0.000
    51.150    36.250     0.000     0.000     0.000     0.000
    51.200    36.250     0.000     0.000     0.000     0.000
    51.250    36.250     0.000     0.000     0.000     0.000
    51.300    36.250     0.000     0.000     0.000     0.000
    51.350    36.250     0.000     0.000     0.000     0.000
    51.400    36.250     0.000     0.000     0.000     0.000
    51.450    36.250     0.000     0.000     0.000     0.000
    51.500    36.250     0.000     0.000     0.000     0.000
    51.550    36.250     0.000     0.000     0.000     0.000
    51.600    36.250     0.000     0.000     0.000     0.000
    51.650    36.250     0.000     0.000     0.000     0.000
    51.700    36.250     0.000     0.000     0.000     0.000
    51.750    36.250     0.000     0.000     0.000     0.000
    51.800    36.250     0.000     0.000     0.000     0.000
    51.850    36.250     0.000     0.000     0.000     0.000
    51.900    36.250     0.000     0.000     0.000     0.000
    51.950    36.250     0.000     0.000     0.000     0.000
    52.000    36.250     0.000     0.000     0.000     0.000
    52.050    36.250     0.000     0.000     0.000     0.000
    52.100    36.250     0.000     0.000     0.000     0.000
    52.150    36.250     0.000     0.000     0.000     0.000
    52.200    36.250     0.000     0.000     0.000     0.000
    52.250    36.250     0.000     0.000     0.000     0.000
    52.300    36.250     0.000     0.000     0.000     0.000
    52.350    36.250     0.000     0.000     0.000     0.000
    52.400    36.250     0.000     0.000     0.000     0.000
    52.450    36.250     0.000     0.000     0.000     0.000
    52.500    36.250     0.000     0.000     0.000     0.000
    52.550    36.250     0.000     0.000     0.000     0.000
    52.600    36.250     0.000     0.000     0.000     0.000
    52.650    36.250     0.000     0.000     0.000     0.000
    52.700    36.250     0.000     0.000     0.000     0.000
    52.750    36.250     0.000     0.000     0.000     0.000
    52.800    36.250     0.000     0.000     0.000     0.000
    52.850    36.250     0.000     0.000     0.000     0.000
    52.900    36.250     0.000     0.000     0.000     0.000
    52.950    36.250     0.000     0.000     0.000     0.000
    53.000    36.250     0.000     0.000     0.000     0.000
    53.050    36.250     0.000     0.000     0.000     0.000
    53.100    36.250     0.000     0.000     0.000     0.000
    53.150    36.250     0.000     0.000     0.000     0.000
    53.200    36.250     0.000     0.000     0.000     0.000
    53.250    36.250     0.000     0.000     0.000     0.000
    53.300    36.250     0.000     0.000     0.000     0.000
    53.350    36.250     0.000     0.000     0.000     0.000
    53.400    36.250     0.000     0.000     0.000     0.000
    53.450    36.250     0.000     0.000     0.000     0.000
    53.500    36.250     0.000     0.000     0.000     0.000
    53.550    36.250     0.000     0.000     0.000     0.000
    53.600    36.250     0.000     0.000     0.000     0.000
    53.650    36.250     0.000     0.000     0.000     0.000
    53.700    36.250     0.000     0.000     0.000     0.000
    53.750    36.250     0.000     0.000     0.000     0.000
    53.800    36.250     0.000     0.000     0.000     0.000
    53.850    36.250     0.000     0.000     0.000     0.000
    53.900    36.250     0.000     0.000     0.000     0.000
    53.950    36.250     0.000     0.000     0.000     0.000
    54.000    36.250     0.000     0.000     0.000     0.000
    54.050    36.250     0.000     0.000     0.000     0.000
    54.100    36.250     0.000     0.000     0.000     0.000
    54.150    36.250     0.000     0.000     0.000     0.000
    54.200    36.250     0.000     0.000     0.000     0.000
    54.250    36.250     0.000     0.000     0.000     0.000
    54.300    36.250     0.000     0.000     0.000     0.000
    54.350    36.250     0.000     0.000     0.000     0.000
    54.400    36.250     0.000     0.000     0.000     0.000
    54.450    36.250     0.000     0.000     0.000     0.000
    54.500    36.250     0.000     0.000     0.000     0.000
    54.550    36.250     0.000     0.000     0.000     0.000
    54.600    36.250     0.000     0.000     0.000     0.000
    54.650    36.250     0.000     0.000     0.000     0.000
    54.700    36.250     0.000     0.000     0.000     0.000
    54.750    36.250     0.000     0.000     0.000     0.000
    54.800    36.250     0.000     0.000     0.000     0.000
    54.850    36.250     0.000     0.000     0.000     0.000
    54.900    36.250     0.000     0.000     0.000     0.000
    54.950    36.250     0.000     0.000     0.000     0.000
    55.000    36.250     0.000     0.000     0.000     0.000
    46.800    36.300     0.000     0.000     0.000     0.000
    46.850    36.300     0.000     0.000     0.000     0.000
    46.900    36.300     0.000     0.000     0.000     0.000
    46.950    36.300     0.000     0.000     0.000     0.000
    47.000    36.300     0.000     0.000     0.000     0.000
    47.050    36.300     0.000     0.000     0.000     0.000
    47.100    36.300     0.000     0.000     0.000     0.000
    47.150    36.300     0.000     0.000     0.000     0.000
    47.200    36.300     0.000     0.000     0.000     0.000
    47.250    36.300     0.000     0.000     0.000     0.000
    47.300    36.300     0.000     0.000     0.000     0.000
    47.350    36.300     0.000     0.000     0.000     0.000
    47.400    36.300     0.000     0.000     0.000     0.000
    47.450    36.300     0.000     0.000     0.000     0.000
    47.500    36.300     0.000     0.000     0.000     0.000
    47.550    36.300     0.000     0.000     0.000     0.000
    47.600    36.300     0.000     0.000     0.000     0.000
    47.650    36.300     0.000     0.000     0.000     0.000
    47.700    36.300     0.000     0.000     0.000     0.000
    47.750    36.300     0.000     0.000     0.000     0.000
    47.800    36.300     0.000     0.000     0.000     0.000
    47.850    36.300     0.000     0.000     0.000     0.000
    47.900    36.300     0.000     0.000     0.000     0.000
    47.950    36.300     0.000     0.000     0.000     0.000
    48.000    36.300     0.000     0.000     0.000     0.000
    48.050    36.300     0.000     0.000     0.000     0.000
    48.100    36.300     0.000     0.000     0.000     0.000
    48.150    36.300     0.000     0.000     0.000     0.000
    48.200    36.300     0.000     0.000     0.000     0.000
    48.250    36.300     0.000     0.000     0.000     0.000
    48.300    36.300     0.000     0.000     0.000     0.000
    48.350    36.300     0.000     0.000     0.000     0.000
    48.400    36.300     0.000     0.000     0.000     0.000
    48.450    36.300     0.000     0.000     0.000     0.000
    48.500    36.300     0.000     0.000     0.000     0.000
    48.550    36.300     0.000     0.000     0.000     0.000
    48.600    36.300     0.000     0.000     0.000     0.000
    48.650    36.300     0.000     0.000     0.000     0.000
    48.700    36.300     0.000     0.000     0.000     0.000
    48.750    36.300     0.000     0.000     0.000     0.000
    48.800    36.300     0.000     0.000     0.000     0.000
    48.850    36.300     0.000     0.000     0.000     0.000
    48.900    36.300     0.000     0.000     0.000     0.000
    48.950    36.300     0.000     0.000     0.000     0.000
    49.000    36.300     0.000     0.000     0.000     0.000
    49.050    36.300     0.000     0.000     0.000     0.000
    49.100    36.300     0.000     0.000     0.000     0.000
    49.150    36.300     0.000     0.000     0.000     0.000
    49.200    36.300     0.000     0.000     0.000     0.000
    49.250    36.300     0.000     0.000     0.000     0.000
    49.300    36.300     0.000     0.000     0.000     0.000
    49.350    36.300     0.000     0.000     0.000     0.000
    49.400    36.300     0.000     0.000     0.000     0.000
    49.450    36.300     0.000     0.000     0.000     0.000
    49.500    36.300     0.000     0.000     0.000     0.000
    49.550    36.300     0.000     0.000     0.000     0.000
    49.600    36.300     0.000     0.000     0.000     0.000
    49.650    36.300     0.000     0.000     0.000     0.000
    49.700    36.300     0.000     0.000     0.000     0.000
    49.750    36.300     0.000     0.000     0.000     0.000
    49.800    36.300     0.000     0.000     0.000     0.000
    49.850    36.300     0.000     0.000     0.000     0.000
    49.900    36.300     0.000     0.000     0.000     0.000
    49.950    36.300     0.000     0.000     0.000     0.000
    50.000    36.300     0.000     0.000     0.000     0.000
    50.050    36.300     0.000     0.000     0.000     0.000
    50.100    36.300     0.000     0.000     0.000     0.000
    50.150    36.300     0.000     0.000     0.000     0.000
    50.200    36.300     0.000     0.000     0.000     0.000
    50.250    36.300     0.000     0.000     0.000     0.000
    50.300    36.300     0.000     0.000     0.000     0.000
    50.350    36.300     0.000     0.000     0.000     0.000
    50.400    36.300     0.000     0.000     0.000     0.000
    50.450    36.300     0.000     0.000     0.000     0.000
    50.500    36.300     0.000     0.000     0.000     0.000
    50.550    36.300     0.000     0.000     0.000     0.000
    50.600    36.300     0.000     0.000     0.000     0.000
    50.650    36.300     0.000     0.000     0.000     0.000
    50.700    36.300     0.000     0.000     0.000     0.000
    50.750    36.300     0.000     0.000     0.000     0.000
    50.800    36.300     0.000     0.000     0.000     0.000
    50.850    36.300     0.000     0.000     0.000     0.000
    50.900    36.300     0.000     0.000     0.000     0.000
    50.950    36.300     0.000     0.000     0.000     0.000
    51.000    36.300     0.000     0.000     0.000     0.000
    51.050    36.300     0.000     0.000     0.000     0.000
    51.100    36.300     0.000     0.000     0.000     0.000
    51.150    36.300     0.000     0.000     0.000     0.000
    51.200    36.300     0.000     0.000     0.000     0.000
    51.250    36.300     0.000     0.000     0.000     0.000
    51.300    36.300     0.000     0.000     0.000     0.000
    51.350    36.300     0.000     0.000     0.000     0.000
    51.400    36.300     0.000     0.000     0.000     0.000
    51.450    36.300     0.000     0.000     0.000     0.000
    51.500    36.300     0.000     0.000     0.000     0.000
    51.550    36.300     0.000     0.000     0.000     0.000
    51.600    36.300     0.000     0.000     0.000     0.000
    51.650    36.300     0.000     0.000     0.000     0.000
    51.700    36.300     0.000     0.000     0.000     0.000
    51.750    36.300     0.000     0.000     0.000     0.000
    51.800    36.300     0.000     0.000     0.000     0.000
    51.850    36.300     0.000     0.000     0.000     0.000
    51.900    36.300     0.000     0.000     0.000     0.000
    51.950    36.300     0.000     0.000     0.000     0.000
    52.000    36.300     0.000     0.000     0.000     0.000
    52.050    36.300     0.000     0.000     0.000     0.000
    52.100    36.300     0.000     0.000     0.000     0.000
    52.150    36.300     0.000     0.000     0.000     0.000
    52.200    36.300     0.000     0.000     0.000     0.000
    52.250    36.300     0.000     0.000     0.000     0.000
    52.300    36.300     0.000     0.000     0.000     0.000
    52.350    36.300     0.000     0.000     0.000     0.000
    52.400    36.300     0.000     0.000     0.000     0.000
    52.450    36.300     0.000     0.000     0.000     0.000
    52.500    36.300     0.000     0.000     0.000     0.000
    52.550    36.300     0.000     0.000     0.000     0.000
    52.600    36.300     0.000     0.000     0.000     0.000
    52.650    36.300     0.000     0.000     0.000     0.000
    52.700    36.300     0.000     0.000     0.000     0.000
    52.750    36.300     0.000     0.000     0.000     0.000
    52.800    36.300     0.000     0.000     0.000     0.000
    52.850    36.300     0.000     0.000     0.000     0.000
    52.900    36.300     0.000     0.000     0.000     0.000
    52.950    36.300     0.000     0.000     0.000     0.000
    53.000    36.300     0.000     0.000     0.000     0.000
    53.050    36.300     0.000     0.000     0.000     0.000
    53.100    36.300     0.000     0.000     0.000     0.000
    53.150    36.300     0.000     0.000     0.000     0.000
    53.200    36.300     0.000     0.000     0.000     0.000
    53.250    36.300     0.000     0.000     0.000     0.000
    53.300    36.300     0.000     0.000     0.000     0.000
    53.350    36.300     0.000     0.000     0.000     0.000
    53.400    36.300     0.000     0.000     0.000     0.000
    53.450    36.300     0.000     0.000     0.000     0.000
    53.500    36.300     0.000     0.000     0.000     0.000
    53.550    36.300     0.000     0.000     0.000     0.000
    53.600    36.300     0.000     0.000     0.000     0.000
    53.650    36.300     0.000     0.000     0.000     0.000
    53.700    36.300     0.000     0.000     0.000     0.000
    53.750    36.300     0.000     0.000     0.000     0.000
    53.800    36.300     0.000     0.000     0.000     0.000
    53.850    36.300     0.000     0.000     0.000     0.000
    53.900    36.300     0.000     0.000     0.000     0.000
    53.950    36.300     0.000     0.000     0.000     0.000
    54.000    36.300     0.000     0.000     0.000     0.000
    54.050    36.300     0.000     0.000     0.000     0.000
    54.100    36.300     0.000     0.000     0.000     0.000
    54.150    36.300     0.000     0.000     0.000     0.000
    54.200    36.300     0.000     0.000     0.000     0.000
    54.250    36.300     0.000     0.000     0.000     0.000
    54.300    36.300     0.000     0.000     0.000     0.000
    54.350    36.300     0.000     0.000     0.000     0.000
    54.400    36.300     0.000     0.000     0.000     0.000
    54.450    36.300     0.000     0.000     0.000     0.000
    54.500    36.300     0.000     0.000     0.000     0.000
    54.550    36.300     0.000     0.000     0.000     0.000
    54.600    36.300     0.000     0.000     0.000     0.000
    54.650    36.300     0.000     0.000     0.000     0.000
    54.700    36.300     0.000     0.000     0.000     0.000
    54.750    36.300     0.000     0.000     0.000     0.000
    54.800    36.300     0.000     0.000     0.000     0.000
    54.850    36.300     0.000     0.000     0.000     0.000
    54.900    36.300     0.000     0.000     0.000     0.000
    54.950    36.300     0.000     0.000     0.000     0.000
    55.000    36.300     0.000     0.000     0.000     0.000
    46.800    36.350     0.000     0.000     0.000     0.000
    46.850    36.350     0.000     0.000     0.000     0.000
    46.900    36.350     0.000     0.000     0.000     0.000
    46.950    36.350     0.000     0.000     0.000     0.000
    47.000    36.350     0.000     0.000     0.000     0.000
    47.050    36.350     0.000     0.000     0.000     0.000
    47.100    36.350     0.000     0.000     0.000     0.000
    47.150    36.350     0.000     0.000     0.000     0.000
    47.200    36.350     0.000     0.000     0.000     0.000
    47.250    36.350     0.000     0.000     0.000     0.000
    47.300    36.350     0.000     0.000     0.000     0.000
    47.350    36.350     0.000     0.000     0.000     0.000
    47.400    36.350     0.000     0.000     0.000     0.000
    47.450    36.350     0.000     0.000     0.000     0.000
    47.500    36.350     0.000     0.000     0.000     0.000
    47.550    36.350     0.000     0.000     0.000     0.000
    47.600    36.350     0.000     0.000     0.000     0.000
    47.650    36.350     0.000     0.000     0.000     0.000
    47.700    36.350     0.000     0.000     0.000     0.000
    47.750    36.350     0.000     0.000     0.000     0.000
    47.800    36.350     0.000     0.000     0.000     0.000
    47.850    36.350     0.000     0.000     0.000     0.000
    47.900    36.350     0.000     0.000     0.000     0.000
    47.950    36.350     0.000     0.000     0.000     0.000
    48.000    36.350     0.000     0.000     0.000     0.000
    48.050    36.350     0.000     0.000     0.000     0.000
    48.100    36.350     0.000     0.000     0.000     0.000
    48.150    36.350     0.000     0.000     0.000     0.000
    48.200    36.350     0.000     0.000     0.000     0.000
    48.250    36.350     0.000     0.000     0.000     0.000
    48.300    36.350     0.000     0.000     0.000     0.000
    48.350    36.350     0.000     0.000     0.000     0.000
    48.400    36.350     0.000     0.000     0.000     0.000
    48.450    36.350     0.000     0.000     0.000     0.000
    48.500    36.350     0.000     0.000     0.000     0.000
    48.550    36.350     0.000     0.000     0.000     0.000
    48.600    36.350     0.000     0.000     0.000     0.000
    48.650    36.350     0.000     0.000     0.000     0.000
    48.700    36.350     0.000     0.000     0.000     0.000
    48.750    36.350     0.000     0.000     0.000     0.000
    48.800    36.350     0.000     0.000     0.000     0.000
    48.850    36.350     0.000     0.000     0.000     0.000
    48.900    36.350     0.000     0.000     0.000     0.000
    48.950    36.350     0.000     0.000     0.000     0.000
    49.000    36.350     0.000     0.000     0.000     0.000
    49.050    36.350     0.000     0.000     0.000     0.000
    49.100    36.350     0.000     0.000     0.000     0.000
    49.150    36.350     0.000     0.000     0.000     0.000
    49.200    36.350     0.000     0.000     0.000     0.000
    49.250    36.350     0.000     0.000     0.000     0.000
    49.300    36.350     0.000     0.000     0.000     0.000
    49.350    36.350     0.000     0.000     0.000     0.000
    49.400    36.350     0.000     0.000     0.000     0.000
    49.450    36.350     0.000     0.000     0.000     0.000
    49.500    36.350     0.000     0.000     0.000     0.000
    49.550    36.350     0.000     0.000     0.000     0.000
    49.600    36.350     0.000     0.000     0.000     0.000
    49.650    36.350     0.000     0.000     0.000     0.000
    49.700    36.350     0.000     0.000     0.000     0.000
    49.750    36.350     0.000     0.000     0.000     0.000
    49.800    36.350     0.000     0.000     0.000     0.000
    49.850    36.350     0.000     0.000     0.000     0.000
    49.900    36.350     0.000     0.000     0.000     0.000
    49.950    36.350     0.000     0.000     0.000     0.000
    50.000    36.350     0.000     0.000     0.000     0.000
    50.050    36.350     0.000     0.000     0.000     0.000
    50.100    36.350     0.000     0.000     0.000     0.000
    50.150    36.350     0.000     0.000     0.000     0.000
    50.200    36.350     0.000     0.000     0.000     0.000
    50.250    36.350     0.000     0.000     0.000     0.000
    50.300    36.350     0.000     0.000     0.000     0.000
    50.350    36.350     0.000     0.000     0.000     0.000
    50.400    36.350     0.000     0.000     0.000     0.000
    50.450    36.350     0.000     0.000     0.000     0.000
    50.500    36.350     0.000     0.000     0.000     0.000
    50.550    36.350     0.000     0.000     0.000     0.000
    50.600    36.350     0.000     0.000     0.000     0.000
    50.650    36.350     0.000     0.000     0.000     0.000
    50.700    36.350     0.000     0.000     0.000     0.000
    50.750    36.350     0.000     0.000     0.000     0.000
    50.800    36.350     0.000     0.000     0.000     0.000
    50.850    36.350     0.000     0.000     0.000     0.000
    50.900    36.350     0.000     0.000     0.000     0.000
    50.950    36.350     0.000     0.000     0.000     0.000
    51.000    36.350     0.000     0.000     0.000     0.000
    51.050    36.350     0.000     0.000     0.000     0.000
    51.100    36.350     0.000     0.000     0.000     0.000
    51.150    36.350     0.000     0.000     0.000     0.000
    51.200    36.350     0.000     0.000     0.000     0.000
    51.250    36.350     0.000     0.000     0.000     0.000
    51.300    36.350     0.000     0.000     0.000     0.000
    51.350    36.350     0.000     0.000     0.000     0.000
    51.400    36.350     0.000     0.000     0.000     0.000
    51.450    36.350     0.000     0.000     0.000     0.000
    51.500    36.350     0.000     0.000     0.000     0.000
    51.550    36.350     0.000     0.000     0.000     0.000
    51.600    36.350     0.000     0.000     0.000     0.000
    51.650    36.350     0.000     0.000     0.000     0.000
    51.700    36.350     0.000     0.000     0.000     0.000
    51.750    36.350     0.000     0.000     0.000     0.000
    51.800    36.350     0.000     0.000     0.000     0.000
    51.850    36.350     0.000     0.000     0.000     0.000
    51.900    36.350     0.000     0.000     0.000     0.000
    51.950    36.350     0.000     0.000     0.000     0.000
    52.000    36.350     0.000     0.000     0.000     0.000
    52.050    36.350     0.000     0.000     0.000     0.000
    52.100    36.350     0.000     0.000     0.000     0.000
    52.150    36.350     0.000     0.000     0.000     0.000
    52.200    36.350     0.000     0.000     0.000     0.000
    52.250    36.350     0.000     0.000     0.000     0.000
    52.300    36.350     0.000     0.000     0.000     0.000
    52.350    36.350     0.000     0.000     0.000     0.000
    52.400    36.350     0.000     0.000     0.000     0.000
    52.450    36.350     0.000     0.000     0.000     0.000
    52.500    36.350     0.000     0.000     0.000     0.000
    52.550    36.350     0.000     0.000     0.000     0.000
    52.600    36.350     0.000     0.000     0.000     0.000
    52.650    36.350     0.000     0.000     0.000     0.000
    52.700    36.350     0.000     0.000     0.000     0.000
    52.750    36.350     0.000     0.000     0.000     0.000
    52.800    36.350     0.000     0.000     0.000     0.000
    52.850    36.350     0.000     0.000     0.000     0.000
    52.900    36.350     0.000     0.000     0.000     0.000
    52.950    36.350     0.000     0.000     0.000     0.000
    53.000    36.350     0.000     0.000     0.000     0.000
    53.050    36.350     0.000     0.000     0.000     0.000
    53.100    36.350     0.000     0.000     0.000     0.000
    53.150    36.350     0.000     0.000     0.000     0.000
    53.200    36.350     0.000     0.000     0.000     0.000
    53.250    36.350     0.000     0.000     0.000     0.000
    53.300    36.350     0.000     0.000     0.000     0.000
    53.350    36.350     0.000     0.000     0.000     0.000
    53.400    36.350     0.000     0.000     0.000     0.000
    53.450    36.350     0.000     0.000     0.000     0.000
    53.500    36.350     0.000     0.000     0.000     0.000
    53.550    36.350     0.000     0.000     0.000     0.000
    53.600    36.350     0.000     0.000     0.000     0.000
    53.650    36.350     0.000     0.000     0.000     0.000
    53.700    36.350     0.000     0.000     0.000     0.000
    53.750    36.350     0.000     0.000     0.000     0.000
    53.800    36.350     0.000     0.000     0.000     0.000
    53.850    36.350     0.000     0.000     0.000     0.000
    53.900    36.350     0.000     0.000     0.000     0.000
    53.950    36.350     0.000     0.000     0.000     0.000
    54.000    36.350     0.000     0.000     0.000     0.000
    54.050    36.350     0.000     0.000     0.000     0.000
    54.100    36.350     0.000     0.000     0.000     0.000
    54.150    36.350     0.000     0.000     0.000     0.000
    54.200    36.350     0.000     0.000     0.000     0.000
    54.250    36.350     0.000     0.000     0.000     0.000
    54.300    36.350     0.000     0.000     0.000     0.000
    54.350    36.350     0.000     0.000     0.000     0.000
    54.400    36.350     0.000     0.000     0.000     0.000
    54.450    36.350     0.000     0.000     0.000     0.000
    54.500    36.350     0.000     0.000     0.000     0.000
    54.550    36.350     0.000     0.000     0.000     0.000
    54.600    36.350     0.000     0.000     0.000     0.000