TITLE = "Wave Graphs for Caspian Sea"
VARIABLES = "X" , "Y" , "Hs" , "Mask" , "u" , "v"
TEXT
CS=FRAME
X=27.5	Y=92.5
ZN=1
C=BLACK
HU=POINT
LS=1	AN=LEFT
F=TIMES-BOLD
H=16	A=0
T="Forecast for 00 UTC Mon. 01 Sep 2014"
ZONE
T="1" , I=320 , J=170 , K=1 , F=POINT
47.5500	22.0500	0.0000	0.0000	0.0000	0.0000
47.6000	22.0500	0.0000	0.0000	0.0000	0.0000
47.6500	22.0500	0.0000	0.0000	0.0000	0.0000
47.7000	22.0500	0.0000	0.0000	0.0000	0.0000
47.7500	22.0500	0.0000	0.0000	0.0000	0.0000
47.8000	22.0500	0.0000	0.0000	0.0000	0.0000
47.8500	22.0500	0.0000	0.0000	0.0000	0.0000
47.9000	22.0500	0.0000	0.0000	0.0000	0.0000
47.9500	22.0500	0.0000	0.0000	0.0000	0.0000
48.0000	22.0500	0.0000	0.0000	0.0000	0.0000
48.0500	22.0500	0.0000	0.0000	0.0000	0.0000
48.1000	22.0500	0.0000	0.0000	0.0000	0.0000
48.1500	22.0500	0.0000	0.0000	0.0000	0.0000
48.2000	22.0500	0.0000	0.0000	0.0000	0.0000
48.2500	22.0500	0.0000	0.0000	0.0000	0.0000
48.3000	22.0500	0.0000	0.0000	0.0000	0.0000
48.3500	22.0500	0.0000	0.0000	0.0000	0.0000
48.4000	22.0500	0.0000	0.0000	0.0000	0.0000
48.4500	22.0500	0.0000	0.0000	0.0000	0.0000
48.5000	22.0500	0.0000	0.0000	0.0000	0.0000
48.5500	22.0500	0.0000	0.0000	0.0000	0.0000
48.6000	22.0500	0.0000	0.0000	0.0000	0.0000
48.6500	22.0500	0.0000	0.0000	0.0000	0.0000
48.7000	22.0500	0.0000	0.0000	0.0000	0.0000
48.7500	22.0500	0.0000	0.0000	0.0000	0.0000
48.8000	22.0500	0.0000	0.0000	0.0000	0.0000
48.8500	22.0500	0.0000	0.0000	0.0000	0.0000
48.9000	22.0500	0.0000	0.0000	0.0000	0.0000
48.9500	22.0500	0.0000	0.0000	0.0000	0.0000
49.0000	22.0500	0.0000	0.0000	0.0000	0.0000
49.0500	22.0500	0.0000	0.0000	0.0000	0.0000
49.1000	22.0500	0.0000	0.0000	0.0000	0.0000
49.1500	22.0500	0.0000	0.0000	0.0000	0.0000
49.2000	22.0500	0.0000	0.0000	0.0000	0.0000
49.2500	22.0500	0.0000	0.0000	0.0000	0.0000
49.3000	22.0500	0.0000	0.0000	0.0000	0.0000
49.3500	22.0500	0.0000	0.0000	0.0000	0.0000
49.4000	22.0500	0.0000	0.0000	0.0000	0.0000
49.4500	22.0500	0.0000	0.0000	0.0000	0.0000
49.5000	22.0500	0.0000	0.0000	0.0000	0.0000
49.5500	22.0500	0.0000	0.0000	0.0000	0.0000
49.6000	22.0500	0.0000	0.0000	0.0000	0.0000
49.6500	22.0500	0.0000	0.0000	0.0000	0.0000
49.7000	22.0500	0.0000	0.0000	0.0000	0.0000
49.7500	22.0500	0.0000	0.0000	0.0000	0.0000
49.8000	22.0500	0.0000	0.0000	0.0000	0.0000
49.8500	22.0500	0.0000	0.0000	0.0000	0.0000
49.9000	22.0500	0.0000	0.0000	0.0000	0.0000
49.9500	22.0500	0.0000	0.0000	0.0000	0.0000
50.0000	22.0500	0.0000	0.0000	0.0000	0.0000
50.0500	22.0500	0.0000	0.0000	0.0000	0.0000
50.1000	22.0500	0.0000	0.0000	0.0000	0.0000
50.1500	22.0500	0.0000	0.0000	0.0000	0.0000
50.2000	22.0500	0.0000	0.0000	0.0000	0.0000
50.2500	22.0500	0.0000	0.0000	0.0000	0.0000
50.3000	22.0500	0.0000	0.0000	0.0000	0.0000
50.3500	22.0500	0.0000	0.0000	0.0000	0.0000
50.4000	22.0500	0.0000	0.0000	0.0000	0.0000
50.4500	22.0500	0.0000	0.0000	0.0000	0.0000
50.5000	22.0500	0.0000	0.0000	0.0000	0.0000
50.5500	22.0500	0.0000	0.0000	0.0000	0.0000
50.6000	22.0500	0.0000	0.0000	0.0000	0.0000
50.6500	22.0500	0.0000	0.0000	0.0000	0.0000
50.7000	22.0500	0.0000	0.0000	0.0000	0.0000
50.7500	22.0500	0.0000	0.0000	0.0000	0.0000
50.8000	22.0500	0.0000	0.0000	0.0000	0.0000
50.8500	22.0500	0.0000	0.0000	0.0000	0.0000
50.9000	22.0500	0.0000	0.0000	0.0000	0.0000
50.9500	22.0500	0.0000	0.0000	0.0000	0.0000
51.0000	22.0500	0.0000	0.0000	0.0000	0.0000
51.0500	22.0500	0.0000	0.0000	0.0000	0.0000
51.1000	22.0500	0.0000	0.0000	0.0000	0.0000
51.1500	22.0500	0.0000	0.0000	0.0000	0.0000
51.2000	22.0500	0.0000	0.0000	0.0000	0.0000
51.2500	22.0500	0.0000	0.0000	0.0000	0.0000
51.3000	22.0500	0.0000	0.0000	0.0000	0.0000
51.3500	22.0500	0.0000	0.0000	0.0000	0.0000
51.4000	22.0500	0.0000	0.0000	0.0000	0.0000
51.4500	22.0500	0.0000	0.0000	0.0000	0.0000
51.5000	22.0500	0.0000	0.0000	0.0000	0.0000
51.5500	22.0500	0.0000	0.0000	0.0000	0.0000
51.6000	22.0500	0.0000	0.0000	0.0000	0.0000
51.6500	22.0500	0.0000	0.0000	0.0000	0.0000
51.7000	22.0500	0.0000	0.0000	0.0000	0.0000
51.7500	22.0500	0.0000	0.0000	0.0000	0.0000
51.8000	22.0500	0.0000	0.0000	0.0000	0.0000
51.8500	22.0500	0.0000	0.0000	0.0000	0.0000
51.9000	22.0500	0.0000	0.0000	0.0000	0.0000
51.9500	22.0500	0.0000	0.0000	0.0000	0.0000
52.0000	22.0500	0.0000	0.0000	0.0000	0.0000
52.0500	22.0500	0.0000	0.0000	0.0000	0.0000
52.1000	22.0500	0.0000	0.0000	0.0000	0.0000
52.1500	22.0500	0.0000	0.0000	0.0000	0.0000
52.2000	22.0500	0.0000	0.0000	0.0000	0.0000
52.2500	22.0500	0.0000	0.0000	0.0000	0.0000
52.3000	22.0500	0.0000	0.0000	0.0000	0.0000
52.3500	22.0500	0.0000	0.0000	0.0000	0.0000
52.4000	22.0500	0.0000	0.0000	0.0000	0.0000
52.4500	22.0500	0.0000	0.0000	0.0000	0.0000
52.5000	22.0500	0.0000	0.0000	0.0000	0.0000
52.5500	22.0500	0.0000	0.0000	0.0000	0.0000
52.6000	22.0500	0.0000	0.0000	0.0000	0.0000
52.6500	22.0500	0.0000	0.0000	0.0000	0.0000
52.7000	22.0500	0.0000	0.0000	0.0000	0.0000
52.7500	22.0500	0.0000	0.0000	0.0000	0.0000
52.8000	22.0500	0.0000	0.0000	0.0000	0.0000
52.8500	22.0500	0.0000	0.0000	0.0000	0.0000
52.9000	22.0500	0.0000	0.0000	0.0000	0.0000
52.9500	22.0500	0.0000	0.0000	0.0000	0.0000
53.0000	22.0500	0.0000	0.0000	0.0000	0.0000
53.0500	22.0500	0.0000	0.0000	0.0000	0.0000
53.1000	22.0500	0.0000	0.0000	0.0000	0.0000
53.1500	22.0500	0.0000	0.0000	0.0000	0.0000
53.2000	22.0500	0.0000	0.0000	0.0000	0.0000
53.2500	22.0500	0.0000	0.0000	0.0000	0.0000
53.3000	22.0500	0.0000	0.0000	0.0000	0.0000
53.3500	22.0500	0.0000	0.0000	0.0000	0.0000
53.4000	22.0500	0.0000	0.0000	0.0000	0.0000
53.4500	22.0500	0.0000	0.0000	0.0000	0.0000
53.5000	22.0500	0.0000	0.0000	0.0000	0.0000
53.5500	22.0500	0.0000	0.0000	0.0000	0.0000
53.6000	22.0500	0.0000	0.0000	0.0000	0.0000
53.6500	22.0500	0.0000	0.0000	0.0000	0.0000
53.7000	22.0500	0.0000	0.0000	0.0000	0.0000
53.7500	22.0500	0.0000	0.0000	0.0000	0.0000
53.8000	22.0500	0.0000	0.0000	0.0000	0.0000
53.8500	22.0500	0.0000	0.0000	0.0000	0.0000
53.9000	22.0500	0.0000	0.0000	0.0000	0.0000
53.9500	22.0500	0.0000	0.0000	0.0000	0.0000
54.0000	22.0500	0.0000	0.0000	0.0000	0.0000
54.0500	22.0500	0.0000	0.0000	0.0000	0.0000
54.1000	22.0500	0.0000	0.0000	0.0000	0.0000
54.1500	22.0500	0.0000	0.0000	0.0000	0.0000
54.2000	22.0500	0.0000	0.0000	0.0000	0.0000
54.2500	22.0500	0.0000	0.0000	0.0000	0.0000
54.3000	22.0500	0.0000	0.0000	0.0000	0.0000
54.3500	22.0500	0.0000	0.0000	0.0000	0.0000
54.4000	22.0500	0.0000	0.0000	0.0000	0.0000
54.4500	22.0500	0.0000	0.0000	0.0000	0.0000
54.5000	22.0500	0.0000	0.0000	0.0000	0.0000
54.5500	22.0500	0.0000	0.0000	0.0000	0.0000
54.6000	22.0500	0.0000	0.0000	0.0000	0.0000
54.6500	22.0500	0.0000	0.0000	0.0000	0.0000
54.7000	22.0500	0.0000	0.0000	0.0000	0.0000
54.7500	22.0500	0.0000	0.0000	0.0000	0.0000
54.8000	22.0500	0.0000	0.0000	0.0000	0.0000
54.8500	22.0500	0.0000	0.0000	0.0000	0.0000
54.9000	22.0500	0.0000	0.0000	0.0000	0.0000
54.9500	22.0500	0.0000	0.0000	0.0000	0.0000
55.0000	22.0500	0.0000	0.0000	0.0000	0.0000
55.0500	22.0500	0.0000	0.0000	0.0000	0.0000
55.1000	22.0500	0.0000	0.0000	0.0000	0.0000
55.1500	22.0500	0.0000	0.0000	0.0000	0.0000
55.2000	22.0500	0.0000	0.0000	0.0000	0.0000
55.2500	22.0500	0.0000	0.0000	0.0000	0.0000
55.3000	22.0500	0.0000	0.0000	0.0000	0.0000
55.3500	22.0500	0.0000	0.0000	0.0000	0.0000
55.4000	22.0500	0.0000	0.0000	0.0000	0.0000
55.4500	22.0500	0.0000	0.0000	0.0000	0.0000
55.5000	22.0500	0.0000	0.0000	0.0000	0.0000
55.5500	22.0500	0.0000	0.0000	0.0000	0.0000
55.6000	22.0500	0.0000	0.0000	0.0000	0.0000
55.6500	22.0500	0.0000	0.0000	0.0000	0.0000
55.7000	22.0500	0.0000	0.0000	0.0000	0.0000
55.7500	22.0500	0.0000	0.0000	0.0000	0.0000
55.8000	22.0500	0.0000	0.0000	0.0000	0.0000
55.8500	22.0500	0.0000	0.0000	0.0000	0.0000
55.9000	22.0500	0.0000	0.0000	0.0000	0.0000
55.9500	22.0500	0.0000	0.0000	0.0000	0.0000
56.0000	22.0500	0.0000	0.0000	0.0000	0.0000
56.0500	22.0500	0.0000	0.0000	0.0000	0.0000
56.1000	22.0500	0.0000	0.0000	0.0000	0.0000
56.1500	22.0500	0.0000	0.0000	0.0000	0.0000
56.2000	22.0500	0.0000	0.0000	0.0000	0.0000
56.2500	22.0500	0.0000	0.0000	0.0000	0.0000
56.3000	22.0500	0.0000	0.0000	0.0000	0.0000
56.3500	22.0500	0.0000	0.0000	0.0000	0.0000
56.4000	22.0500	0.0000	0.0000	0.0000	0.0000
56.4500	22.0500	0.0000	0.0000	0.0000	0.0000
56.5000	22.0500	0.0000	0.0000	0.0000	0.0000
56.5500	22.0500	0.0000	0.0000	0.0000	0.0000
56.6000	22.0500	0.0000	0.0000	0.0000	0.0000
56.6500	22.0500	0.0000	0.0000	0.0000	0.0000
56.7000	22.0500	0.0000	0.0000	0.0000	0.0000
56.7500	22.0500	0.0000	0.0000	0.0000	0.0000
56.8000	22.0500	0.0000	0.0000	0.0000	0.0000
56.8500	22.0500	0.0000	0.0000	0.0000	0.0000
56.9000	22.0500	0.0000	0.0000	0.0000	0.0000
56.9500	22.0500	0.0000	0.0000	0.0000	0.0000
57.0000	22.0500	0.0000	0.0000	0.0000	0.0000
57.0500	22.0500	0.0000	0.0000	0.0000	0.0000
57.1000	22.0500	0.0000	0.0000	0.0000	0.0000
57.1500	22.0500	0.0000	0.0000	0.0000	0.0000
57.2000	22.0500	0.0000	0.0000	0.0000	0.0000
57.2500	22.0500	0.0000	0.0000	0.0000	0.0000
57.3000	22.0500	0.0000	0.0000	0.0000	0.0000
57.3500	22.0500	0.0000	0.0000	0.0000	0.0000
57.4000	22.0500	0.0000	0.0000	0.0000	0.0000
57.4500	22.0500	0.0000	0.0000	0.0000	0.0000
57.5000	22.0500	0.0000	0.0000	0.0000	0.0000
57.5500	22.0500	0.0000	0.0000	0.0000	0.0000
57.6000	22.0500	0.0000	0.0000	0.0000	0.0000
57.6500	22.0500	0.0000	0.0000	0.0000	0.0000
57.7000	22.0500	0.0000	0.0000	0.0000	0.0000
57.7500	22.0500	0.0000	0.0000	0.0000	0.0000
57.8000	22.0500	0.0000	0.0000	0.0000	0.0000
57.8500	22.0500	0.0000	0.0000	0.0000	0.0000
57.9000	22.0500	0.0000	0.0000	0.0000	0.0000
57.9500	22.0500	0.0000	0.0000	0.0000	0.0000
58.0000	22.0500	0.0000	0.0000	0.0000	0.0000
58.0500	22.0500	0.0000	0.0000	0.0000	0.0000
58.1000	22.0500	0.0000	0.0000	0.0000	0.0000
58.1500	22.0500	0.0000	0.0000	0.0000	0.0000
58.2000	22.0500	0.0000	0.0000	0.0000	0.0000
58.2500	22.0500	0.0000	0.0000	0.0000	0.0000
58.3000	22.0500	0.0000	0.0000	0.0000	0.0000
58.3500	22.0500	0.0000	0.0000	0.0000	0.0000
58.4000	22.0500	0.0000	0.0000	0.0000	0.0000
58.4500	22.0500	0.0000	0.0000	0.0000	0.0000
58.5000	22.0500	0.0000	0.0000	0.0000	0.0000
58.5500	22.0500	0.0000	0.0000	0.0000	0.0000
58.6000	22.0500	0.0000	0.0000	0.0000	0.0000
58.6500	22.0500	0.0000	0.0000	0.0000	0.0000
58.7000	22.0500	0.0000	0.0000	0.0000	0.0000
58.7500	22.0500	0.0000	0.0000	0.0000	0.0000
58.8000	22.0500	0.0000	0.0000	0.0000	0.0000
58.8500	22.0500	0.0000	0.0000	0.0000	0.0000
58.9000	22.0500	0.0000	0.0000	0.0000	0.0000
58.9500	22.0500	0.0000	0.0000	0.0000	0.0000
59.0000	22.0500	0.0000	0.0000	0.0000	0.0000
59.0500	22.0500	0.0000	0.0000	0.0000	0.0000
59.1000	22.0500	0.0000	0.0000	0.0000	0.0000
59.1500	22.0500	0.0000	0.0000	0.0000	0.0000
59.2000	22.0500	0.0000	0.0000	0.0000	0.0000
59.2500	22.0500	0.0000	0.0000	0.0000	0.0000
59.3000	22.0500	0.0000	0.0000	0.0000	0.0000
59.3500	22.0500	0.0000	0.0000	0.0000	0.0000
59.4000	22.0500	0.0000	0.0000	0.0000	0.0000
59.4500	22.0500	0.0000	0.0000	0.0000	0.0000
59.5000	22.0500	0.0000	0.0000	0.0000	0.0000
59.5500	22.0500	0.0000	0.0000	0.0000	0.0000
59.6000	22.0500	0.0000	0.0000	0.0000	0.0000
59.6500	22.0500	0.5230	1.0000	0.4356	0.2894
59.7000	22.0500	0.5940	1.0000	0.5259	0.2761
59.7500	22.0500	0.6500	1.0000	0.6064	0.2340
59.8000	22.0500	0.7000	1.0000	0.6698	0.2035
59.8500	22.0500	0.7310	1.0000	0.7099	0.1744
59.9000	22.0500	0.7280	1.0000	0.7146	0.1389
59.9500	22.0500	0.7430	1.0000	0.7339	0.1162
60.0000	22.0500	0.7670	1.0000	0.7611	0.0948
60.0500	22.0500	0.7920	1.0000	0.7886	0.0732
60.1000	22.0500	0.8170	1.0000	0.8153	0.0527
60.1500	22.0500	0.8400	1.0000	0.8394	0.0322
60.2000	22.0500	0.8600	1.0000	0.8599	0.0135
60.2500	22.0500	0.8780	1.0000	0.8780	-0.0031
60.3000	22.0500	0.8910	1.0000	0.8908	-0.0187
60.3500	22.0500	0.9020	1.0000	0.9013	-0.0346
60.4000	22.0500	0.9130	1.0000	0.9117	-0.0478
60.4500	22.0500	0.9230	1.0000	0.9209	-0.0628
60.5000	22.0500	0.9340	1.0000	0.9309	-0.0765
60.5500	22.0500	0.9440	1.0000	0.9400	-0.0872
60.6000	22.0500	0.9550	1.0000	0.9501	-0.0965
60.6500	22.0500	0.9650	1.0000	0.9592	-0.1059
60.7000	22.0500	0.9750	1.0000	0.9683	-0.1138
60.7500	22.0500	0.9870	1.0000	0.9794	-0.1220
60.8000	22.0500	0.9980	1.0000	0.9897	-0.1285
60.8500	22.0500	1.0090	1.0000	0.9997	-0.1369
60.9000	22.0500	1.0190	1.0000	1.0086	-0.1453
60.9500	22.0500	1.0300	1.0000	1.0184	-0.1540
61.0000	22.0500	1.0390	1.0000	1.0265	-0.1607
61.0500	22.0500	1.0480	1.0000	1.0342	-0.1694
61.1000	22.0500	1.0560	1.0000	1.0412	-0.1761
61.1500	22.0500	1.0650	1.0000	1.0491	-0.1831
61.2000	22.0500	1.0730	1.0000	1.0564	-0.1882
61.2500	22.0500	1.0810	1.0000	1.0632	-0.1951
61.3000	22.0500	1.0890	1.0000	1.0701	-0.2022
61.3500	22.0500	1.0970	1.0000	1.0772	-0.2074
61.4000	22.0500	1.1050	1.0000	1.0840	-0.2146
61.4500	22.0500	1.1120	1.0000	1.0901	-0.2198
61.5000	22.0500	1.1200	1.0000	1.0967	-0.2271
61.5500	22.0500	1.1270	1.0000	1.1028	-0.2324
61.6000	22.0500	1.1330	1.0000	1.1074	-0.2394
61.6500	22.0500	1.1390	1.0000	1.1120	-0.2465
61.7000	22.0500	1.1450	1.0000	1.1170	-0.2517
61.7500	22.0500	1.1510	1.0000	1.1220	-0.2570
61.8000	22.0500	1.1570	1.0000	1.1264	-0.2642
61.8500	22.0500	1.1630	1.0000	1.1313	-0.2695
61.9000	22.0500	1.1690	1.0000	1.1362	-0.2749
61.9500	22.0500	1.1760	1.0000	1.1416	-0.2825
62.0000	22.0500	1.1820	1.0000	1.1464	-0.2880
62.0500	22.0500	1.1900	1.0000	1.1526	-0.2959
62.1000	22.0500	1.1980	1.0000	1.1593	-0.3020
62.1500	22.0500	1.2070	1.0000	1.1664	-0.3104
62.2000	22.0500	1.2160	1.0000	1.1735	-0.3188
62.2500	22.0500	1.2260	1.0000	1.1814	-0.3276
62.3000	22.0500	1.2360	1.0000	1.1893	-0.3365
62.3500	22.0500	1.2460	1.0000	1.1971	-0.3455
62.4000	22.0500	1.2570	1.0000	1.2059	-0.3549
62.4500	22.0500	1.2680	1.0000	1.2145	-0.3644
62.5000	22.0500	1.2790	1.0000	1.2231	-0.3739
62.5500	22.0500	1.2900	1.0000	1.2316	-0.3836
62.6000	22.0500	1.3020	1.0000	1.2411	-0.3937
62.6500	22.0500	1.3140	1.0000	1.2511	-0.4017
62.7000	22.0500	1.3260	1.0000	1.2604	-0.4120
62.7500	22.0500	1.3380	1.0000	1.2703	-0.4201
62.8000	22.0500	1.3500	1.0000	1.2802	-0.4284
62.8500	22.0500	1.3620	1.0000	1.2901	-0.4367
62.9000	22.0500	1.3740	1.0000	1.2991	-0.4473
62.9500	22.0500	1.3870	1.0000	1.3099	-0.4561
63.0000	22.0500	1.3990	1.0000	1.3196	-0.4647
63.0500	22.0500	1.4110	1.0000	1.3292	-0.4733
63.1000	22.0500	1.4240	1.0000	1.3398	-0.4824
63.1500	22.0500	1.4360	1.0000	1.3485	-0.4935
63.2000	22.0500	1.4480	1.0000	1.3581	-0.5024
63.2500	22.0500	1.4610	1.0000	1.3694	-0.5093
63.3000	22.0500	1.4730	1.0000	1.3788	-0.5183
63.3500	22.0500	1.4860	1.0000	1.3892	-0.5277
63.4000	22.0500	1.4540	1.0000	1.3646	-0.5021
63.4500	22.0500	0.2580	1.0000	0.2228	0.1302
63.5000	22.0500	0.0000	0.0000	0.0000	0.0000
47.5500	22.1000	0.0000	0.0000	0.0000	0.0000
47.6000	22.1000	0.0000	0.0000	0.0000	0.0000
47.6500	22.1000	0.0000	0.0000	0.0000	0.0000
47.7000	22.1000	0.0000	0.0000	0.0000	0.0000
47.7500	22.1000	0.0000	0.0000	0.0000	0.0000
47.8000	22.1000	0.0000	0.0000	0.0000	0.0000
47.8500	22.1000	0.0000	0.0000	0.0000	0.0000
47.9000	22.1000	0.0000	0.0000	0.0000	0.0000
47.9500	22.1000	0.0000	0.0000	0.0000	0.0000
48.0000	22.1000	0.0000	0.0000	0.0000	0.0000
48.0500	22.1000	0.0000	0.0000	0.0000	0.0000
48.1000	22.1000	0.0000	0.0000	0.0000	0.0000
48.1500	22.1000	0.0000	0.0000	0.0000	0.0000
48.2000	22.1000	0.0000	0.0000	0.0000	0.0000
48.2500	22.1000	0.0000	0.0000	0.0000	0.0000
48.3000	22.1000	0.0000	0.0000	0.0000	0.0000
48.3500	22.1000	0.0000	0.0000	0.0000	0.0000
48.4000	22.1000	0.0000	0.0000	0.0000	0.0000
48.4500	22.1000	0.0000	0.0000	0.0000	0.0000
48.5000	22.1000	0.0000	0.0000	0.0000	0.0000
48.5500	22.1000	0.0000	0.0000	0.0000	0.0000
48.6000	22.1000	0.0000	0.0000	0.0000	0.0000
48.6500	22.1000	0.0000	0.0000	0.0000	0.0000
48.7000	22.1000	0.0000	0.0000	0.0000	0.0000
48.7500	22.1000	0.0000	0.0000	0.0000	0.0000
48.8000	22.1000	0.0000	0.0000	0.0000	0.0000
48.8500	22.1000	0.0000	0.0000	0.0000	0.0000
48.9000	22.1000	0.0000	0.0000	0.0000	0.0000
48.9500	22.1000	0.0000	0.0000	0.0000	0.0000
49.0000	22.1000	0.0000	0.0000	0.0000	0.0000
49.0500	22.1000	0.0000	0.0000	0.0000	0.0000
49.1000	22.1000	0.0000	0.0000	0.0000	0.0000
49.1500	22.1000	0.0000	0.0000	0.0000	0.0000
49.2000	22.1000	0.0000	0.0000	0.0000	0.0000
49.2500	22.1000	0.0000	0.0000	0.0000	0.0000
49.3000	22.1000	0.0000	0.0000	0.0000	0.0000
49.3500	22.1000	0.0000	0.0000	0.0000	0.0000
49.4000	22.1000	0.0000	0.0000	0.0000	0.0000
49.4500	22.1000	0.0000	0.0000	0.0000	0.0000
49.5000	22.1000	0.0000	0.0000	0.0000	0.0000
49.5500	22.1000	0.0000	0.0000	0.0000	0.0000
49.6000	22.1000	0.0000	0.0000	0.0000	0.0000
49.6500	22.1000	0.0000	0.0000	0.0000	0.0000
49.7000	22.1000	0.0000	0.0000	0.0000	0.0000
49.7500	22.1000	0.0000	0.0000	0.0000	0.0000
49.8000	22.1000	0.0000	0.0000	0.0000	0.0000
49.8500	22.1000	0.0000	0.0000	0.0000	0.0000
49.9000	22.1000	0.0000	0.0000	0.0000	0.0000
49.9500	22.1000	0.0000	0.0000	0.0000	0.0000
50.0000	22.1000	0.0000	0.0000	0.0000	0.0000
50.0500	22.1000	0.0000	0.0000	0.0000	0.0000
50.1000	22.1000	0.0000	0.0000	0.0000	0.0000
50.1500	22.1000	0.0000	0.0000	0.0000	0.0000
50.2000	22.1000	0.0000	0.0000	0.0000	0.0000
50.2500	22.1000	0.0000	0.0000	0.0000	0.0000
50.3000	22.1000	0.0000	0.0000	0.0000	0.0000
50.3500	22.1000	0.0000	0.0000	0.0000	0.0000
50.4000	22.1000	0.0000	0.0000	0.0000	0.0000
50.4500	22.1000	0.0000	0.0000	0.0000	0.0000
50.5000	22.1000	0.0000	0.0000	0.0000	0.0000
50.5500	22.1000	0.0000	0.0000	0.0000	0.0000
50.6000	22.1000	0.0000	0.0000	0.0000	0.0000
50.6500	22.1000	0.0000	0.0000	0.0000	0.0000
50.7000	22.1000	0.0000	0.0000	0.0000	0.0000
50.7500	22.1000	0.0000	0.0000	0.0000	0.0000
50.8000	22.1000	0.0000	0.0000	0.0000	0.0000
50.8500	22.1000	0.0000	0.0000	0.0000	0.0000
50.9000	22.1000	0.0000	0.0000	0.0000	0.0000
50.9500	22.1000	0.0000	0.0000	0.0000	0.0000
51.0000	22.1000	0.0000	0.0000	0.0000	0.0000
51.0500	22.1000	0.0000	0.0000	0.0000	0.0000
51.1000	22.1000	0.0000	0.0000	0.0000	0.0000
51.1500	22.1000	0.0000	0.0000	0.0000	0.0000
51.2000	22.1000	0.0000	0.0000	0.0000	0.0000
51.2500	22.1000	0.0000	0.0000	0.0000	0.0000
51.3000	22.1000	0.0000	0.0000	0.0000	0.0000
51.3500	22.1000	0.0000	0.0000	0.0000	0.0000
51.4000	22.1000	0.0000	0.0000	0.0000	0.0000
51.4500	22.1000	0.0000	0.0000	0.0000	0.0000
51.5000	22.1000	0.0000	0.0000	0.0000	0.0000
51.5500	22.1000	0.0000	0.0000	0.0000	0.0000
51.6000	22.1000	0.0000	0.0000	0.0000	0.0000
51.6500	22.1000	0.0000	0.0000	0.0000	0.0000
51.7000	22.1000	0.0000	0.0000	0.0000	0.0000
51.7500	22.1000	0.0000	0.0000	0.0000	0.0000
51.8000	22.1000	0.0000	0.0000	0.0000	0.0000
51.8500	22.1000	0.0000	0.0000	0.0000	0.0000
51.9000	22.1000	0.0000	0.0000	0.0000	0.0000
51.9500	22.1000	0.0000	0.0000	0.0000	0.0000
52.0000	22.1000	0.0000	0.0000	0.0000	0.0000
52.0500	22.1000	0.0000	0.0000	0.0000	0.0000
52.1000	22.1000	0.0000	0.0000	0.0000	0.0000
52.1500	22.1000	0.0000	0.0000	0.0000	0.0000
52.2000	22.1000	0.0000	0.0000	0.0000	0.0000
52.2500	22.1000	0.0000	0.0000	0.0000	0.0000
52.3000	22.1000	0.0000	0.0000	0.0000	0.0000
52.3500	22.1000	0.0000	0.0000	0.0000	0.0000
52.4000	22.1000	0.0000	0.0000	0.0000	0.0000
52.4500	22.1000	0.0000	0.0000	0.0000	0.0000
52.5000	22.1000	0.0000	0.0000	0.0000	0.0000
52.5500	22.1000	0.0000	0.0000	0.0000	0.0000
52.6000	22.1000	0.0000	0.0000	0.0000	0.0000
52.6500	22.1000	0.0000	0.0000	0.0000	0.0000
52.7000	22.1000	0.0000	0.0000	0.0000	0.0000
52.7500	22.1000	0.0000	0.0000	0.0000	0.0000
52.8000	22.1000	0.0000	0.0000	0.0000	0.0000
52.8500	22.1000	0.0000	0.0000	0.0000	0.0000
52.9000	22.1000	0.0000	0.0000	0.0000	0.0000
52.9500	22.1000	0.0000	0.0000	0.0000	0.0000
53.0000	22.1000	0.0000	0.0000	0.0000	0.0000
53.0500	22.1000	0.0000	0.0000	0.0000	0.0000
53.1000	22.1000	0.0000	0.0000	0.0000	0.0000
53.1500	22.1000	0.0000	0.0000	0.0000	0.0000
53.2000	22.1000	0.0000	0.0000	0.0000	0.0000
53.2500	22.1000	0.0000	0.0000	0.0000	0.0000
53.3000	22.1000	0.0000	0.0000	0.0000	0.0000
53.3500	22.1000	0.0000	0.0000	0.0000	0.0000
53.4000	22.1000	0.0000	0.0000	0.0000	0.0000
53.4500	22.1000	0.0000	0.0000	0.0000	0.0000
53.5000	22.1000	0.0000	0.0000	0.0000	0.0000
53.5500	22.1000	0.0000	0.0000	0.0000	0.0000
53.6000	22.1000	0.0000	0.0000	0.0000	0.0000
53.6500	22.1000	0.0000	0.0000	0.0000	0.0000
53.7000	22.1000	0.0000	0.0000	0.0000	0.0000
53.7500	22.1000	0.0000	0.0000	0.0000	0.0000
53.8000	22.1000	0.0000	0.0000	0.0000	0.0000
53.8500	22.1000	0.0000	0.0000	0.0000	0.0000
53.9000	22.1000	0.0000	0.0000	0.0000	0.0000
53.9500	22.1000	0.0000	0.0000	0.0000	0.0000
54.0000	22.1000	0.0000	0.0000	0.0000	0.0000
54.0500	22.1000	0.0000	0.0000	0.0000	0.0000
54.1000	22.1000	0.0000	0.0000	0.0000	0.0000
54.1500	22.1000	0.0000	0.0000	0.0000	0.0000
54.2000	22.1000	0.0000	0.0000	0.0000	0.0000
54.2500	22.1000	0.0000	0.0000	0.0000	0.0000
54.3000	22.1000	0.0000	0.0000	0.0000	0.0000
54.3500	22.1000	0.0000	0.0000	0.0000	0.0000
54.4000	22.1000	0.0000	0.0000	0.0000	0.0000
54.4500	22.1000	0.0000	0.0000	0.0000	0.0000
54.5000	22.1000	0.0000	0.0000	0.0000	0.0000
54.5500	22.1000	0.0000	0.0000	0.0000	0.0000
54.6000	22.1000	0.0000	0.0000	0.0000	0.0000
54.6500	22.1000	0.0000	0.0000	0.0000	0.0000
54.7000	22.1000	0.0000	0.0000	0.0000	0.0000
54.7500	22.1000	0.0000	0.0000	0.0000	0.0000
54.8000	22.1000	0.0000	0.0000	0.0000	0.0000
54.8500	22.1000	0.0000	0.0000	0.0000	0.0000
54.9000	22.1000	0.0000	0.0000	0.0000	0.0000
54.9500	22.1000	0.0000	0.0000	0.0000	0.0000
55.0000	22.1000	0.0000	0.0000	0.0000	0.0000
55.0500	22.1000	0.0000	0.0000	0.0000	0.0000
55.1000	22.1000	0.0000	0.0000	0.0000	0.0000
55.1500	22.1000	0.0000	0.0000	0.0000	0.0000
55.2000	22.1000	0.0000	0.0000	0.0000	0.0000
55.2500	22.1000	0.0000	0.0000	0.0000	0.0000
55.3000	22.1000	0.0000	0.0000	0.0000	0.0000
55.3500	22.1000	0.0000	0.0000	0.0000	0.0000
55.4000	22.1000	0.0000	0.0000	0.0000	0.0000
55.4500	22.1000	0.0000	0.0000	0.0000	0.0000
55.5000	22.1000	0.0000	0.0000	0.0000	0.0000
55.5500	22.1000	0.0000	0.0000	0.0000	0.0000
55.6000	22.1000	0.0000	0.0000	0.0000	0.0000
55.6500	22.1000	0.0000	0.0000	0.0000	0.0000
55.7000	22.1000	0.0000	0.0000	0.0000	0.0000
55.7500	22.1000	0.0000	0.0000	0.0000	0.0000
55.8000	22.1000	0.0000	0.0000	0.0000	0.0000
55.8500	22.1000	0.0000	0.0000	0.0000	0.0000
55.9000	22.1000	0.0000	0.0000	0.0000	0.0000
55.9500	22.1000	0.0000	0.0000	0.0000	0.0000
56.0000	22.1000	0.0000	0.0000	0.0000	0.0000
56.0500	22.1000	0.0000	0.0000	0.0000	0.0000
56.1000	22.1000	0.0000	0.0000	0.0000	0.0000
56.1500	22.1000	0.0000	0.0000	0.0000	0.0000
56.2000	22.1000	0.0000	0.0000	0.0000	0.0000
56.2500	22.1000	0.0000	0.0000	0.0000	0.0000
56.3000	22.1000	0.0000	0.0000	0.0000	0.0000
56.3500	22.1000	0.0000	0.0000	0.0000	0.0000
56.4000	22.1000	0.0000	0.0000	0.0000	0.0000
56.4500	22.1000	0.0000	0.0000	0.0000	0.0000
56.5000	22.1000	0.0000	0.0000	0.0000	0.0000
56.5500	22.1000	0.0000	0.0000	0.0000	0.0000
56.6000	22.1000	0.0000	0.0000	0.0000	0.0000
56.6500	22.1000	0.0000	0.0000	0.0000	0.0000
56.7000	22.1000	0.0000	0.0000	0.0000	0.0000
56.7500	22.1000	0.0000	0.0000	0.0000	0.0000
56.8000	22.1000	0.0000	0.0000	0.0000	0.0000
56.8500	22.1000	0.0000	0.0000	0.0000	0.0000
56.9000	22.1000	0.0000	0.0000	0.0000	0.0000
56.9500	22.1000	0.0000	0.0000	0.0000	0.0000
57.0000	22.1000	0.0000	0.0000	0.0000	0.0000
57.0500	22.1000	0.0000	0.0000	0.0000	0.0000
57.1000	22.1000	0.0000	0.0000	0.0000	0.0000
57.1500	22.1000	0.0000	0.0000	0.0000	0.0000
57.2000	22.1000	0.0000	0.0000	0.0000	0.0000
57.2500	22.1000	0.0000	0.0000	0.0000	0.0000
57.3000	22.1000	0.0000	0.0000	0.0000	0.0000
57.3500	22.1000	0.0000	0.0000	0.0000	0.0000
57.4000	22.1000	0.0000	0.0000	0.0000	0.0000
57.4500	22.1000	0.0000	0.0000	0.0000	0.0000
57.5000	22.1000	0.0000	0.0000	0.0000	0.0000
57.5500	22.1000	0.0000	0.0000	0.0000	0.0000
57.6000	22.1000	0.0000	0.0000	0.0000	0.0000
57.6500	22.1000	0.0000	0.0000	0.0000	0.0000
57.7000	22.1000	0.0000	0.0000	0.0000	0.0000
57.7500	22.1000	0.0000	0.0000	0.0000	0.0000
57.8000	22.1000	0.0000	0.0000	0.0000	0.0000
57.8500	22.1000	0.0000	0.0000	0.0000	0.0000
57.9000	22.1000	0.0000	0.0000	0.0000	0.0000
57.9500	22.1000	0.0000	0.0000	0.0000	0.0000
58.0000	22.1000	0.0000	0.0000	0.0000	0.0000
58.0500	22.1000	0.0000	0.0000	0.0000	0.0000
58.1000	22.1000	0.0000	0.0000	0.0000	0.0000
58.1500	22.1000	0.0000	0.0000	0.0000	0.0000
58.2000	22.1000	0.0000	0.0000	0.0000	0.0000
58.2500	22.1000	0.0000	0.0000	0.0000	0.0000
58.3000	22.1000	0.0000	0.0000	0.0000	0.0000
58.3500	22.1000	0.0000	0.0000	0.0000	0.0000
58.4000	22.1000	0.0000	0.0000	0.0000	0.0000
58.4500	22.1000	0.0000	0.0000	0.0000	0.0000
58.5000	22.1000	0.0000	0.0000	0.0000	0.0000
58.5500	22.1000	0.0000	0.0000	0.0000	0.0000
58.6000	22.1000	0.0000	0.0000	0.0000	0.0000
58.6500	22.1000	0.0000	0.0000	0.0000	0.0000
58.7000	22.1000	0.0000	0.0000	0.0000	0.0000
58.7500	22.1000	0.0000	0.0000	0.0000	0.0000
58.8000	22.1000	0.0000	0.0000	0.0000	0.0000
58.8500	22.1000	0.0000	0.0000	0.0000	0.0000
58.9000	22.1000	0.0000	0.0000	0.0000	0.0000
58.9500	22.1000	0.0000	0.0000	0.0000	0.0000
59.0000	22.1000	0.0000	0.0000	0.0000	0.0000
59.0500	22.1000	0.0000	0.0000	0.0000	0.0000
59.1000	22.1000	0.0000	0.0000	0.0000	0.0000
59.1500	22.1000	0.0000	0.0000	0.0000	0.0000
59.2000	22.1000	0.0000	0.0000	0.0000	0.0000
59.2500	22.1000	0.0000	0.0000	0.0000	0.0000
59.3000	22.1000	0.0000	0.0000	0.0000	0.0000
59.3500	22.1000	0.0000	0.0000	0.0000	0.0000
59.4000	22.1000	0.0000	0.0000	0.0000	0.0000
59.4500	22.1000	0.0000	0.0000	0.0000	0.0000
59.5000	22.1000	0.0000	0.0000	0.0000	0.0000
59.5500	22.1000	0.0000	0.0000	0.0000	0.0000
59.6000	22.1000	0.0000	0.0000	0.0000	0.0000
59.6500	22.1000	0.0000	0.0000	0.0000	0.0000
59.7000	22.1000	0.6040	1.0000	0.4661	0.3842
59.7500	22.1000	0.7160	1.0000	0.5915	0.4035
59.8000	22.1000	0.7400	1.0000	0.6503	0.3531
59.8500	22.1000	0.7970	1.0000	0.7298	0.3204
59.9000	22.1000	0.8480	1.0000	0.7979	0.2872
59.9500	22.1000	0.8880	1.0000	0.8514	0.2522
60.0000	22.1000	0.9230	1.0000	0.8964	0.2202
60.0500	22.1000	0.9480	1.0000	0.9290	0.1890
60.1000	22.1000	0.9700	1.0000	0.9570	0.1584
60.1500	22.1000	0.9910	1.0000	0.9821	0.1328
60.2000	22.1000	1.0100	1.0000	1.0043	0.1073
60.2500	22.1000	1.0270	1.0000	1.0234	0.0859
60.3000	22.1000	1.0430	1.0000	1.0408	0.0673
60.3500	22.1000	1.0580	1.0000	1.0569	0.0480
60.4000	22.1000	1.0710	1.0000	1.0706	0.0299
60.4500	22.1000	1.0840	1.0000	1.0839	0.0132
60.5000	22.1000	1.0950	1.0000	1.0950	-0.0038
60.5500	22.1000	1.1060	1.0000	1.1059	-0.0174
60.6000	22.1000	1.1180	1.0000	1.1176	-0.0312
60.6500	22.1000	1.1300	1.0000	1.1292	-0.0434
60.7000	22.1000	1.1430	1.0000	1.1417	-0.0538
60.7500	22.1000	1.1560	1.0000	1.1542	-0.0645
60.8000	22.1000	1.1680	1.0000	1.1656	-0.0754
60.8500	22.1000	1.1800	1.0000	1.1768	-0.0864
60.9000	22.1000	1.1930	1.0000	1.1892	-0.0957
60.9500	22.1000	1.2040	1.0000	1.1992	-0.1070
61.0000	22.1000	1.2150	1.0000	1.2094	-0.1165
61.0500	22.1000	1.2260	1.0000	1.2197	-0.1239
61.1000	22.1000	1.2360	1.0000	1.2288	-0.1335
61.1500	22.1000	1.2460	1.0000	1.2380	-0.1411
61.2000	22.1000	1.2560	1.0000	1.2472	-0.1487
61.2500	22.1000	1.2670	1.0000	1.2573	-0.1566
61.3000	22.1000	1.2760	1.0000	1.2654	-0.1643
61.3500	22.1000	1.2860	1.0000	1.2744	-0.1723
61.4000	22.1000	1.2950	1.0000	1.2824	-0.1802
61.4500	22.1000	1.3030	1.0000	1.2894	-0.1881
61.5000	22.1000	1.3120	1.0000	1.2976	-0.1939
61.5500	22.1000	1.3190	1.0000	1.3035	-0.2018
61.6000	22.1000	1.3260	1.0000	1.3093	-0.2097
61.6500	22.1000	1.3320	1.0000	1.3145	-0.2153
61.7000	22.1000	1.3390	1.0000	1.3206	-0.2210
61.7500	22.1000	1.3450	1.0000	1.3254	-0.2289
61.8000	22.1000	1.3520	1.0000	1.3315	-0.2348
61.8500	22.1000	1.3590	1.0000	1.3375	-0.2407
61.9000	22.1000	1.3660	1.0000	1.3431	-0.2489
61.9500	22.1000	1.3740	1.0000	1.3501	-0.2551
62.0000	22.1000	1.3820	1.0000	1.3566	-0.2637
62.0500	22.1000	1.3910	1.0000	1.3645	-0.2702
62.1000	22.1000	1.4010	1.0000	1.3729	-0.2793
62.1500	22.1000	1.4120	1.0000	1.3822	-0.2887
62.2000	22.1000	1.4230	1.0000	1.3919	-0.2959
62.2500	22.1000	1.4340	1.0000	1.4011	-0.3055
62.3000	22.1000	1.4460	1.0000	1.4112	-0.3154
62.3500	22.1000	1.4580	1.0000	1.4212	-0.3255
62.4000	22.1000	1.4700	1.0000	1.4312	-0.3357
62.4500	22.1000	1.4830	1.0000	1.4420	-0.3462
62.5000	22.1000	1.4950	1.0000	1.4518	-0.3566
62.5500	22.1000	1.5080	1.0000	1.4626	-0.3674
62.6000	22.1000	1.5200	1.0000	1.4722	-0.3780
62.6500	22.1000	1.5330	1.0000	1.4835	-0.3864
62.7000	22.1000	1.5470	1.0000	1.4957	-0.3952
62.7500	22.1000	1.5600	1.0000	1.5061	-0.4064
62.8000	22.1000	1.5740	1.0000	1.5182	-0.4153
62.8500	22.1000	1.5870	1.0000	1.5293	-0.4241
62.9000	22.1000	1.6010	1.0000	1.5413	-0.4332
62.9500	22.1000	1.6150	1.0000	1.5524	-0.4452
63.0000	22.1000	1.6280	1.0000	1.5634	-0.4542
63.0500	22.1000	1.6420	1.0000	1.5752	-0.4636
63.1000	22.1000	1.6560	1.0000	1.5862	-0.4759
63.1500	22.1000	1.6690	1.0000	1.5969	-0.4852
63.2000	22.1000	1.6830	1.0000	1.6086	-0.4949
63.2500	22.1000	1.6960	1.0000	1.6184	-0.5072
63.3000	22.1000	1.7090	1.0000	1.6290	-0.5168
63.3500	22.1000	1.7260	1.0000	1.6443	-0.5248
63.4000	22.1000	1.6930	1.0000	1.6164	-0.5035
63.4500	22.1000	0.2590	1.0000	0.2227	0.1322
63.5000	22.1000	0.0000	0.0000	0.0000	0.0000
47.5500	22.1500	0.0000	0.0000	0.0000	0.0000
47.6000	22.1500	0.0000	0.0000	0.0000	0.0000
47.6500	22.1500	0.0000	0.0000	0.0000	0.0000
47.7000	22.1500	0.0000	0.0000	0.0000	0.0000
47.7500	22.1500	0.0000	0.0000	0.0000	0.0000
47.8000	22.1500	0.0000	0.0000	0.0000	0.0000
47.8500	22.1500	0.0000	0.0000	0.0000	0.0000
47.9000	22.1500	0.0000	0.0000	0.0000	0.0000
47.9500	22.1500	0.0000	0.0000	0.0000	0.0000
48.0000	22.1500	0.0000	0.0000	0.0000	0.0000
48.0500	22.1500	0.0000	0.0000	0.0000	0.0000
48.1000	22.1500	0.0000	0.0000	0.0000	0.0000
48.1500	22.1500	0.0000	0.0000	0.0000	0.0000
48.2000	22.1500	0.0000	0.0000	0.0000	0.0000
48.2500	22.1500	0.0000	0.0000	0.0000	0.0000
48.3000	22.1500	0.0000	0.0000	0.0000	0.0000
48.3500	22.1500	0.0000	0.0000	0.0000	0.0000
48.4000	22.1500	0.0000	0.0000	0.0000	0.0000
48.4500	22.1500	0.0000	0.0000	0.0000	0.0000
48.5000	22.1500	0.0000	0.0000	0.0000	0.0000
48.5500	22.1500	0.0000	0.0000	0.0000	0.0000
48.6000	22.1500	0.0000	0.0000	0.0000	0.0000
48.6500	22.1500	0.0000	0.0000	0.0000	0.0000
48.7000	22.1500	0.0000	0.0000	0.0000	0.0000
48.7500	22.1500	0.0000	0.0000	0.0000	0.0000
48.8000	22.1500	0.0000	0.0000	0.0000	0.0000
48.8500	22.1500	0.0000	0.0000	0.0000	0.0000
48.9000	22.1500	0.0000	0.0000	0.0000	0.0000
48.9500	22.1500	0.0000	0.0000	0.0000	0.0000
49.0000	22.1500	0.0000	0.0000	0.0000	0.0000
49.0500	22.1500	0.0000	0.0000	0.0000	0.0000
49.1000	22.1500	0.0000	0.0000	0.0000	0.0000
49.1500	22.1500	0.0000	0.0000	0.0000	0.0000